 Q-Chem 5.3 (devel), Q-Chem, Inc., Pleasanton, CA (2020)
 Q-Chem 5.3.0 for Intel X86 EM64T Linux

User input:
--------------------------------------------------------------
$rem
   JOBTYPE  sp
   EXCHANGE   omegaB97X-D
   BASIS   6-311+G(2df,2pd)
   UNRESTRICTED   False
   max_scf_cycles   250
   geom_opt_max_cycles   1500
   basis2 6-31G*
   scf_algorithm rca_diis
   SYM_IGNORE  TRUE
   print_input   true
   geom_opt_dmax   80
   pop_mulliken false
   XC_GRID 000075000302
$end

$molecule
0 1
O       -4.5253402055     2.5945747095     -0.0268171508
H       -3.4367388215     2.5746251034     -0.0131667074
H       -4.7222009730     3.2517401871     -0.4763361419
$end
--------------------------------------------------------------

             Standard Nuclear Orientation (Angstroms)
    I     Atom           X                Y                Z
 ----------------------------------------------------------------
    1      O      -4.5253402055     2.5945747095    -0.0268171508
    2      H      -3.4367388215     2.5746251034    -0.0131667074
    3      H      -4.7222009730     3.2517401871    -0.4763361419
 ----------------------------------------------------------------

    7     -76.3448668977      1.13E-05 Convergence criterion met
    6     -76.3979453733      4.67E-06 Convergence criterion met
 Total energy in the final basis set = -76.39794537

                    Orbital Energies (a.u.)
 --------------------------------------------------------------

 Alpha MOs
 -- Occupied --
-19.2495  -1.1359  -0.6280  -0.4826  -0.4093

                    Cartesian Multipole Moments
 -----------------------------------------------------------------
    Charge (ESU x 10^10)
                -0.0000
    Dipole Moment (Debye)
         X       1.4077      Y       1.1565      Z      -0.7911
       Tot       1.9862
    Quadrupole Moments (Debye-Ang)
        XX     -17.2301     XY      -2.1553     YY      -0.3150
        XZ       3.9348     YZ      -2.9989     ZZ      -6.9860

 Total job time:  1.73s(wall), 9.92s(cpu)
        *  Thank you very much for using Q-Chem.  Have a nice day.  *
