 Q-Chem 5.3 (devel), Q-Chem, Inc., Pleasanton, CA (2020)
 Q-Chem 5.3.0 for Intel X86 EM64T Linux

User input:
--------------------------------------------------------------
$rem
   JOBTYPE  sp
   EXCHANGE   omegaB97X-D
   BASIS   6-311+G(2df,2pd)
   UNRESTRICTED   False
   max_scf_cycles   250
   geom_opt_max_cycles   1500
   basis2 6-31G*
   scf_algorithm rca_diis
   SYM_IGNORE  TRUE
   print_input   true
   geom_opt_dmax   80
   pop_mulliken false
   XC_GRID 000075000302
$end

$molecule
0 1
O       -4.5595770608     2.6212047201     -0.0450329055
H       -3.4062324707     2.5719805796     -0.0113576615
H       -4.7184704685     3.2277547004     -0.4599294330
$end
--------------------------------------------------------------

             Standard Nuclear Orientation (Angstroms)
    I     Atom           X                Y                Z
 ----------------------------------------------------------------
    1      O      -4.5595770608     2.6212047201    -0.0450329055
    2      H      -3.4062324707     2.5719805796    -0.0113576615
    3      H      -4.7184704685     3.2277547004    -0.4599294330
 ----------------------------------------------------------------

    7     -76.2859610081      1.51E-05 Convergence criterion met
    6     -76.3406265210      5.89E-06 Convergence criterion met
 Total energy in the final basis set = -76.34062652

                    Orbital Energies (a.u.)
 --------------------------------------------------------------

 Alpha MOs
 -- Occupied --
-19.2447  -1.1546  -0.6278  -0.4813  -0.4102

                    Cartesian Multipole Moments
 -----------------------------------------------------------------
    Charge (ESU x 10^10)
                -0.0000
    Dipole Moment (Debye)
         X       1.5449      Y       1.0684      Z      -0.7308
       Tot       2.0155
    Quadrupole Moments (Debye-Ang)
        XX     -18.3410     XY      -1.4048     YY      -0.7805
        XZ       3.6613     YZ      -2.8140     ZZ      -6.9770

 Total job time:  1.70s(wall), 9.68s(cpu)
        *  Thank you very much for using Q-Chem.  Have a nice day.  *
