 Q-Chem 5.3 (devel), Q-Chem, Inc., Pleasanton, CA (2020)
 Q-Chem 5.3.0 for Intel X86 EM64T Linux

User input:
--------------------------------------------------------------
$rem
   JOBTYPE  sp
   EXCHANGE   omegaB97X-D
   BASIS   6-311+G(2df,2pd)
   UNRESTRICTED   False
   max_scf_cycles   250
   geom_opt_max_cycles   1500
   basis2 6-31G*
   scf_algorithm rca_diis
   SYM_IGNORE  TRUE
   print_input   true
   geom_opt_dmax   80
   pop_mulliken false
   XC_GRID 000075000302
$end

$molecule
0 1
O       -4.4843313253     2.5102780221     0.0308441309
H       -3.3920349002     2.5428047720     0.0085994034
H       -4.8079137745     3.3678572059     -0.5557635343
$end
--------------------------------------------------------------

             Standard Nuclear Orientation (Angstroms)
    I     Atom           X                Y                Z
 ----------------------------------------------------------------
    1      O      -4.4843313253     2.5102780221     0.0308441309
    2      H      -3.3920349002     2.5428047720     0.0085994034
    3      H      -4.8079137745     3.3678572059    -0.5557635343
 ----------------------------------------------------------------

    7     -76.3618389379      4.21E-05 Convergence criterion met
    7     -76.4110135398      6.34E-06 Convergence criterion met
 Total energy in the final basis set = -76.41101354

                    Orbital Energies (a.u.)
 --------------------------------------------------------------

 Alpha MOs
 -- Occupied --
-19.2721  -1.0698  -0.5788  -0.4708  -0.3983

                    Cartesian Multipole Moments
 -----------------------------------------------------------------
    Charge (ESU x 10^10)
                -0.0000
    Dipole Moment (Debye)
         X       1.1843      Y       1.3749      Z      -0.9404
       Tot       2.0439
    Quadrupole Moments (Debye-Ang)
        XX     -15.2693     XY      -3.9243     YY       0.7573
        XZ       4.7544     YZ      -3.5714     ZZ      -7.1781

 Total job time:  2.01s(wall), 11.55s(cpu)
        *  Thank you very much for using Q-Chem.  Have a nice day.  *
