 Q-Chem 5.3 (devel), Q-Chem, Inc., Pleasanton, CA (2020)
 Q-Chem 5.3.0 for Intel X86 EM64T Linux

User input:
--------------------------------------------------------------
$rem
   JOBTYPE  sp
   EXCHANGE   omegaB97X-D
   BASIS   6-311+G(2df,2pd)
   UNRESTRICTED   False
   max_scf_cycles   250
   geom_opt_max_cycles   1500
   basis2 6-31G*
   scf_algorithm rca_diis
   SYM_IGNORE  TRUE
   print_input   true
   geom_opt_dmax   80
   pop_mulliken false
   XC_GRID 000075000302
$end

$molecule
0 1
O       -4.3042764300     2.7179945866     -0.1112386484
H       -3.4469944817     2.4178187174     0.0940928778
H       -4.9330090884     3.2851266960     -0.4991742295
$end
--------------------------------------------------------------

             Standard Nuclear Orientation (Angstroms)
    I     Atom           X                Y                Z
 ----------------------------------------------------------------
    1      O      -4.3042764300     2.7179945866    -0.1112386484
    2      H      -3.4469944817     2.4178187174     0.0940928778
    3      H      -4.9330090884     3.2851266960    -0.4991742295
 ----------------------------------------------------------------

    7     -76.3432296252      1.44E-05 Convergence criterion met
    6     -76.4018050387      4.45E-06 Convergence criterion met
 Total energy in the final basis set = -76.40180504

                    Orbital Energies (a.u.)
 --------------------------------------------------------------

 Alpha MOs
 -- Occupied --
-19.2298  -1.1029  -0.6999  -0.4108  -0.4014

                    Cartesian Multipole Moments
 -----------------------------------------------------------------
    Charge (ESU x 10^10)
                 0.0000
    Dipole Moment (Debye)
         X       0.4935      Y       0.5765      Z      -0.3943
       Tot       0.8552
    Quadrupole Moments (Debye-Ang)
        XX      -8.5444     XY      -3.0153     YY      -3.3541
        XZ       2.9252     YZ      -1.9919     ZZ      -7.0660

 Total job time:  1.80s(wall), 10.20s(cpu)
        *  Thank you very much for using Q-Chem.  Have a nice day.  *
