 Q-Chem 5.3 (devel), Q-Chem, Inc., Pleasanton, CA (2020)
 Q-Chem 5.3.0 for Intel X86 EM64T Linux

User input:
--------------------------------------------------------------
$rem
   JOBTYPE  sp
   EXCHANGE   omegaB97X-D
   BASIS   6-311+G(2df,2pd)
   UNRESTRICTED   False
   max_scf_cycles   250
   geom_opt_max_cycles   1500
   basis2 6-31G*
   scf_algorithm rca_diis
   SYM_IGNORE  TRUE
   print_input   true
   geom_opt_dmax   80
   pop_mulliken false
   XC_GRID 000075000302
$end

$molecule
0 1
O       -4.4172406981     2.5861888490     -0.0210805686
H       -3.4692709624     2.5296996519     0.0175633328
H       -4.7977683395     3.3050514991     -0.5128027643
$end
--------------------------------------------------------------

             Standard Nuclear Orientation (Angstroms)
    I     Atom           X                Y                Z
 ----------------------------------------------------------------
    1      O      -4.4172406981     2.5861888490    -0.0210805686
    2      H      -3.4692709624     2.5296996519     0.0175633328
    3      H      -4.7977683395     3.3050514991    -0.5128027643
 ----------------------------------------------------------------

    7     -76.3809466029      9.70E-06 Convergence criterion met
    6     -76.4340397291      3.15E-06 Convergence criterion met
 Total energy in the final basis set = -76.43403973

                    Orbital Energies (a.u.)
 --------------------------------------------------------------

 Alpha MOs
 -- Occupied --
-19.2479  -1.1147  -0.6513  -0.4615  -0.4065

                    Cartesian Multipole Moments
 -----------------------------------------------------------------
    Charge (ESU x 10^10)
                 0.0000
    Dipole Moment (Debye)
         X       1.0159      Y       1.1859      Z      -0.8112
       Tot       1.7596
    Quadrupole Moments (Debye-Ang)
        XX     -13.6703     XY      -3.6144     YY      -0.1030
        XZ       4.2480     YZ      -3.1193     ZZ      -6.9776

 Total job time:  1.80s(wall), 10.17s(cpu)
        *  Thank you very much for using Q-Chem.  Have a nice day.  *
