 Q-Chem 5.3 (devel), Q-Chem, Inc., Pleasanton, CA (2020)
 Q-Chem 5.3.0 for Intel X86 EM64T Linux

User input:
--------------------------------------------------------------
$rem
   JOBTYPE  sp
   EXCHANGE   omegaB97X-D
   BASIS   6-311+G(2df,2pd)
   UNRESTRICTED   False
   max_scf_cycles   250
   geom_opt_max_cycles   1500
   basis2 6-31G*
   scf_algorithm rca_diis
   SYM_IGNORE  TRUE
   print_input   true
   geom_opt_dmax   80
   pop_mulliken false
   XC_GRID 000075000302
$end

$molecule
0 1
O       -4.5005298880     2.4925605704     0.0429632611
H       -3.3401640315     2.5264392621     0.0197940453
H       -4.8435860805     3.4019401676     -0.5790773063
$end
--------------------------------------------------------------

             Standard Nuclear Orientation (Angstroms)
    I     Atom           X                Y                Z
 ----------------------------------------------------------------
    1      O      -4.5005298880     2.4925605704     0.0429632611
    2      H      -3.3401640315     2.5264392621     0.0197940453
    3      H      -4.8435860805     3.4019401676    -0.5790773063
 ----------------------------------------------------------------

    7     -76.3378574309      6.65E-05 Convergence criterion met
    7     -76.3855824277      9.16E-06 Convergence criterion met
 Total energy in the final basis set = -76.38558243

                    Orbital Energies (a.u.)
 --------------------------------------------------------------

 Alpha MOs
 -- Occupied --
-19.2796  -1.0507  -0.5579  -0.4649  -0.3945

                    Cartesian Multipole Moments
 -----------------------------------------------------------------
    Charge (ESU x 10^10)
                 0.0000
    Dipole Moment (Debye)
         X       1.2022      Y       1.3929      Z      -0.9528
       Tot       2.0721
    Quadrupole Moments (Debye-Ang)
        XX     -15.3448     XY      -4.0524     YY       0.8082
        XZ       4.8733     YZ      -3.6645     ZZ      -7.2674

 Total job time:  2.00s(wall), 11.45s(cpu)
        *  Thank you very much for using Q-Chem.  Have a nice day.  *
