 Q-Chem 5.3 (devel), Q-Chem, Inc., Pleasanton, CA (2020)
 Q-Chem 5.3.0 for Intel X86 EM64T Linux

User input:
--------------------------------------------------------------
$rem
   JOBTYPE  sp
   EXCHANGE   omegaB97X-D
   BASIS   6-311+G(2df,2pd)
   UNRESTRICTED   False
   max_scf_cycles   250
   geom_opt_max_cycles   1500
   basis2 6-31G*
   scf_algorithm rca_diis
   SYM_IGNORE  TRUE
   print_input   true
   geom_opt_dmax   80
   pop_mulliken false
   XC_GRID 000075000302
$end

$molecule
0 1
O       -4.2651999067     2.7635887972     -0.1424261107
H       -3.4584812988     2.3903186430     0.1129035941
H       -4.9605987945     3.2670325598     -0.4867974834
$end
--------------------------------------------------------------

             Standard Nuclear Orientation (Angstroms)
    I     Atom           X                Y                Z
 ----------------------------------------------------------------
    1      O      -4.2651999067     2.7635887972    -0.1424261107
    2      H      -3.4584812988     2.3903186430     0.1129035941
    3      H      -4.9605987945     3.2670325598    -0.4867974834
 ----------------------------------------------------------------

    7     -76.3332735700      1.35E-05 Convergence criterion met
    6     -76.3933031954      3.64E-06 Convergence criterion met
 Total energy in the final basis set = -76.39330320

                    Orbital Energies (a.u.)
 --------------------------------------------------------------

 Alpha MOs
 -- Occupied --
-19.2256  -1.1016  -0.7086  -0.4029  -0.4006

                    Cartesian Multipole Moments
 -----------------------------------------------------------------
    Charge (ESU x 10^10)
                 0.0000
    Dipole Moment (Debye)
         X       0.2497      Y       0.2920      Z      -0.1998
       Tot       0.4330
    Quadrupole Moments (Debye-Ang)
        XX      -6.3691     XY      -2.5671     YY      -4.9156
        XZ       2.1924     YZ      -1.4229     ZZ      -7.1178

 Total job time:  1.76s(wall), 10.03s(cpu)
        *  Thank you very much for using Q-Chem.  Have a nice day.  *
