 Q-Chem 5.3 (devel), Q-Chem, Inc., Pleasanton, CA (2020)
 Q-Chem 5.3.0 for Intel X86 EM64T Linux

User input:
--------------------------------------------------------------
$rem
   JOBTYPE  sp
   EXCHANGE   omegaB97X-D
   BASIS   6-311+G(2df,2pd)
   UNRESTRICTED   False
   max_scf_cycles   250
   geom_opt_max_cycles   1500
   basis2 6-31G*
   scf_algorithm rca_diis
   SYM_IGNORE  TRUE
   print_input   true
   geom_opt_dmax   80
   pop_mulliken false
   XC_GRID 000075000302
$end

$molecule
0 1
O       -4.4518929808     2.5457599720     0.0065736898
H       -3.4957324312     2.5754742893     -0.0137478108
H       -4.7366545880     3.2997057387     -0.5091458790
$end
--------------------------------------------------------------

             Standard Nuclear Orientation (Angstroms)
    I     Atom           X                Y                Z
 ----------------------------------------------------------------
    1      O      -4.4518929808     2.5457599720     0.0065736898
    2      H      -3.4957324312     2.5754742893    -0.0137478108
    3      H      -4.7366545880     3.2997057387    -0.5091458790
 ----------------------------------------------------------------

    7     -76.3852787303      7.26E-06 Convergence criterion met
    6     -76.4374396812      2.81E-06 Convergence criterion met
 Total energy in the final basis set = -76.43743968

                    Orbital Energies (a.u.)
 --------------------------------------------------------------

 Alpha MOs
 -- Occupied --
-19.2538  -1.1202  -0.6276  -0.4835  -0.4084

                    Cartesian Multipole Moments
 -----------------------------------------------------------------
    Charge (ESU x 10^10)
                -0.0000
    Dipole Moment (Debye)
         X       1.1341      Y       1.3237      Z      -0.9054
       Tot       1.9642
    Quadrupole Moments (Debye-Ang)
        XX     -14.9692     XY      -3.6294     YY       0.6079
        XZ       4.4649     YZ      -3.3569     ZZ      -6.9685

 Total job time:  1.78s(wall), 10.11s(cpu)
        *  Thank you very much for using Q-Chem.  Have a nice day.  *
