 Q-Chem 5.3 (devel), Q-Chem, Inc., Pleasanton, CA (2020)
 Q-Chem 5.3.0 for Intel X86 EM64T Linux

User input:
--------------------------------------------------------------
$rem
   JOBTYPE  sp
   EXCHANGE   omegaB97X-D
   BASIS   6-311+G(2df,2pd)
   UNRESTRICTED   False
   max_scf_cycles   250
   geom_opt_max_cycles   1500
   basis2 6-31G*
   scf_algorithm rca_diis
   SYM_IGNORE  TRUE
   print_input   true
   geom_opt_dmax   80
   pop_mulliken false
   XC_GRID 000075000302
$end

$molecule
0 1
O       -4.3727477243     2.5035913091     0.0354184663
H       -3.5518335313     2.5696497650     -0.0097639120
H       -4.7596987444     3.3476989259     -0.5419745543
$end
--------------------------------------------------------------

             Standard Nuclear Orientation (Angstroms)
    I     Atom           X                Y                Z
 ----------------------------------------------------------------
    1      O      -4.3727477243     2.5035913091     0.0354184663
    2      H      -3.5518335313     2.5696497650    -0.0097639120
    3      H      -4.7596987444     3.3476989259    -0.5419745543
 ----------------------------------------------------------------

    7     -76.3462398154      1.14E-05 Convergence criterion met
    6     -76.3991733578      4.78E-06 Convergence criterion met
 Total energy in the final basis set = -76.39917336

                    Orbital Energies (a.u.)
 --------------------------------------------------------------

 Alpha MOs
 -- Occupied --
-19.2502  -1.1338  -0.6262  -0.4821  -0.4089

                    Cartesian Multipole Moments
 -----------------------------------------------------------------
    Charge (ESU x 10^10)
                -0.0000
    Dipole Moment (Debye)
         X       0.8548      Y       1.4825      Z      -1.0141
       Tot       1.9892
    Quadrupole Moments (Debye-Ang)
        XX     -12.5903     XY      -5.1044     YY       1.5353
        XZ       4.9857     YZ      -3.7023     ZZ      -6.9056

 Total job time:  1.76s(wall), 10.05s(cpu)
        *  Thank you very much for using Q-Chem.  Have a nice day.  *
