 Q-Chem 5.3 (devel), Q-Chem, Inc., Pleasanton, CA (2020)
 Q-Chem 5.3.0 for Intel X86 EM64T Linux

User input:
--------------------------------------------------------------
$rem
   JOBTYPE  sp
   EXCHANGE   omegaB97X-D
   BASIS   6-311+G(2df,2pd)
   UNRESTRICTED   False
   max_scf_cycles   250
   geom_opt_max_cycles   1500
   basis2 6-31G*
   scf_algorithm rca_diis
   SYM_IGNORE  TRUE
   print_input   true
   geom_opt_dmax   80
   pop_mulliken false
   XC_GRID 000075000302
$end

$molecule
0 1
O       -4.4356530797     2.5635246422     -0.0055777389
H       -3.5475590025     2.5917780775     -0.0249002333
H       -4.7010679178     3.2656372802     -0.4858420279
$end
--------------------------------------------------------------

             Standard Nuclear Orientation (Angstroms)
    I     Atom           X                Y                Z
 ----------------------------------------------------------------
    1      O      -4.4356530797     2.5635246422    -0.0055777389
    2      H      -3.5475590025     2.5917780775    -0.0249002333
    3      H      -4.7010679178     3.2656372802    -0.4858420279
 ----------------------------------------------------------------

    7     -76.3732468175      6.49E-06 Convergence criterion met
    6     -76.4270132554      2.18E-06 Convergence criterion met
 Total energy in the final basis set = -76.42701326

                    Orbital Energies (a.u.)
 --------------------------------------------------------------

 Alpha MOs
 -- Occupied --
-19.2426  -1.1521  -0.6557  -0.4902  -0.4145

                    Cartesian Multipole Moments
 -----------------------------------------------------------------
    Charge (ESU x 10^10)
                 0.0000
    Dipole Moment (Debye)
         X       1.1032      Y       1.2921      Z      -0.8838
       Tot       1.9151
    Quadrupole Moments (Debye-Ang)
        XX     -14.7510     XY      -3.4683     YY       0.5206
        XZ       4.3007     YZ      -3.2398     ZZ      -6.8463

 Total job time:  1.78s(wall), 10.09s(cpu)
        *  Thank you very much for using Q-Chem.  Have a nice day.  *
