 Q-Chem 5.3 (devel), Q-Chem, Inc., Pleasanton, CA (2020)
 Q-Chem 5.3.0 for Intel X86 EM64T Linux

User input:
--------------------------------------------------------------
$rem
   JOBTYPE  sp
   EXCHANGE   omegaB97X-D
   BASIS   6-311+G(2df,2pd)
   UNRESTRICTED   False
   max_scf_cycles   250
   geom_opt_max_cycles   1500
   basis2 6-31G*
   scf_algorithm rca_diis
   SYM_IGNORE  TRUE
   print_input   true
   geom_opt_dmax   80
   pop_mulliken false
   XC_GRID 000075000302
$end

$molecule
0 1
O       -4.4193992428     2.5813052724     -0.0177400844
H       -3.5993706983     2.6080610212     -0.0360383974
H       -4.6655100589     3.2315737064     -0.4625415181
$end
--------------------------------------------------------------

             Standard Nuclear Orientation (Angstroms)
    I     Atom           X                Y                Z
 ----------------------------------------------------------------
    1      O      -4.4193992428     2.5813052724    -0.0177400844
    2      H      -3.5993706983     2.6080610212    -0.0360383974
    3      H      -4.6655100589     3.2315737064    -0.4625415181
 ----------------------------------------------------------------

    7     -76.3324203653      7.04E-06 Convergence criterion met
    6     -76.3881578869      1.86E-06 Convergence criterion met
 Total energy in the final basis set = -76.38815789

                    Orbital Energies (a.u.)
 --------------------------------------------------------------

 Alpha MOs
 -- Occupied --
-19.2300  -1.1888  -0.6865  -0.4971  -0.4212

                    Cartesian Multipole Moments
 -----------------------------------------------------------------
    Charge (ESU x 10^10)
                 0.0000
    Dipole Moment (Debye)
         X       1.0700      Y       1.2581      Z      -0.8606
       Tot       1.8623
    Quadrupole Moments (Debye-Ang)
        XX     -14.4948     XY      -3.3037     YY       0.4352
        XZ       4.1301     YZ      -3.1209     ZZ      -6.7117

 Total job time:  1.78s(wall), 10.18s(cpu)
        *  Thank you very much for using Q-Chem.  Have a nice day.  *
