 Q-Chem 5.3 (devel), Q-Chem, Inc., Pleasanton, CA (2020)
 Q-Chem 5.3.0 for Intel X86 EM64T Linux

User input:
--------------------------------------------------------------
$rem
   JOBTYPE  sp
   EXCHANGE   omegaB97X-D
   BASIS   6-311+G(2df,2pd)
   UNRESTRICTED   False
   max_scf_cycles   250
   geom_opt_max_cycles   1500
   basis2 6-31G*
   scf_algorithm rca_diis
   SYM_IGNORE  TRUE
   print_input   true
   geom_opt_dmax   80
   pop_mulliken false
   XC_GRID 000075000302
$end

$molecule
0 1
O       -4.3807750309     2.6287357664     -0.0501836140
H       -3.4522936510     2.4878723401     0.0461743653
H       -4.8512113181     3.3043318935     -0.5123107513
$end
--------------------------------------------------------------

             Standard Nuclear Orientation (Angstroms)
    I     Atom           X                Y                Z
 ----------------------------------------------------------------
    1      O      -4.3807750309     2.6287357664    -0.0501836140
    2      H      -3.4522936510     2.4878723401     0.0461743653
    3      H      -4.8512113181     3.3043318935    -0.5123107513
 ----------------------------------------------------------------

    7     -76.3705281780      1.21E-05 Convergence criterion met
    6     -76.4251827677      3.73E-06 Convergence criterion met
 Total energy in the final basis set = -76.42518277

                    Orbital Energies (a.u.)
 --------------------------------------------------------------

 Alpha MOs
 -- Occupied --
-19.2417  -1.1100  -0.6713  -0.4413  -0.4046

                    Cartesian Multipole Moments
 -----------------------------------------------------------------
    Charge (ESU x 10^10)
                 0.0000
    Dipole Moment (Debye)
         X       0.8759      Y       1.0225      Z      -0.6994
       Tot       1.5171
    Quadrupole Moments (Debye-Ang)
        XX     -12.2098     XY      -3.5258     YY      -0.9591
        XZ       3.9427     YZ      -2.8298     ZZ      -6.9956

 Total job time:  1.78s(wall), 10.07s(cpu)
        *  Thank you very much for using Q-Chem.  Have a nice day.  *
