 Q-Chem 5.3 (devel), Q-Chem, Inc., Pleasanton, CA (2020)
 Q-Chem 5.3.0 for Intel X86 EM64T Linux

User input:
--------------------------------------------------------------
$rem
   JOBTYPE  sp
   EXCHANGE   omegaB97X-D
   BASIS   6-311+G(2df,2pd)
   UNRESTRICTED   False
   max_scf_cycles   250
   geom_opt_max_cycles   1500
   basis2 6-31G*
   scf_algorithm rca_diis
   SYM_IGNORE  TRUE
   print_input   true
   geom_opt_dmax   80
   pop_mulliken false
   XC_GRID 000075000302
$end

$molecule
0 1
O       -4.4681190398     2.5280111312     0.0187142908
H       -3.4438910471     2.5591498134     -0.0025812374
H       -4.7722699131     3.3337790554     -0.5324530534
$end
--------------------------------------------------------------

             Standard Nuclear Orientation (Angstroms)
    I     Atom           X                Y                Z
 ----------------------------------------------------------------
    1      O      -4.4681190398     2.5280111312     0.0187142908
    2      H      -3.4438910471     2.5591498134    -0.0025812374
    3      H      -4.7722699131     3.3337790554    -0.5324530534
 ----------------------------------------------------------------

    7     -76.3791631789      8.76E-06 Convergence criterion met
    7     -76.4298172178      4.69E-06 Convergence criterion met
 Total energy in the final basis set = -76.42981722

                    Orbital Energies (a.u.)
 --------------------------------------------------------------

 Alpha MOs
 -- Occupied --
-19.2635  -1.0928  -0.6020  -0.4770  -0.4029

                    Cartesian Multipole Moments
 -----------------------------------------------------------------
    Charge (ESU x 10^10)
                -0.0000
    Dipole Moment (Debye)
         X       1.1614      Y       1.3516      Z      -0.9245
       Tot       2.0076
    Quadrupole Moments (Debye-Ang)
        XX     -15.1435     XY      -3.7826     YY       0.6890
        XZ       4.6175     YZ      -3.4683     ZZ      -7.0788

 Total job time:  1.96s(wall), 11.17s(cpu)
        *  Thank you very much for using Q-Chem.  Have a nice day.  *
