 Q-Chem 5.3 (devel), Q-Chem, Inc., Pleasanton, CA (2020)
 Q-Chem 5.3.0 for Intel X86 EM64T Linux

User input:
--------------------------------------------------------------
$rem
   JOBTYPE  sp
   EXCHANGE   omegaB97X-D
   BASIS   6-311+G(2df,2pd)
   UNRESTRICTED   False
   max_scf_cycles   250
   geom_opt_max_cycles   1500
   basis2 6-31G*
   scf_algorithm rca_diis
   SYM_IGNORE  TRUE
   print_input   true
   geom_opt_dmax   80
   pop_mulliken false
   XC_GRID 000075000302
$end

$molecule
0 1
O       -4.4129484723     2.5238060067     0.0215909276
H       -3.5241583228     2.5734407401     -0.0123569253
H       -4.7471732050     3.3236932532     -0.5255540023
$end
--------------------------------------------------------------

             Standard Nuclear Orientation (Angstroms)
    I     Atom           X                Y                Z
 ----------------------------------------------------------------
    1      O      -4.4129484723     2.5238060067     0.0215909276
    2      H      -3.5241583228     2.5734407401    -0.0123569253
    3      H      -4.7471732050     3.3236932532    -0.5255540023
 ----------------------------------------------------------------

    7     -76.3759309889      8.46E-06 Convergence criterion met
    6     -76.4282460126      3.49E-06 Convergence criterion met
 Total energy in the final basis set = -76.42824601

                    Orbital Energies (a.u.)
 --------------------------------------------------------------

 Alpha MOs
 -- Occupied --
-19.2529  -1.1234  -0.6270  -0.4831  -0.4085

                    Cartesian Multipole Moments
 -----------------------------------------------------------------
    Charge (ESU x 10^10)
                 0.0000
    Dipole Moment (Debye)
         X       0.9956      Y       1.4038      Z      -0.9603
       Tot       1.9708
    Quadrupole Moments (Debye-Ang)
        XX     -13.7992     XY      -4.3644     YY       1.0698
        XZ       4.7257     YZ      -3.5308     ZZ      -6.9426

 Total job time:  1.78s(wall), 10.05s(cpu)
        *  Thank you very much for using Q-Chem.  Have a nice day.  *
