 Q-Chem 5.3 (devel), Q-Chem, Inc., Pleasanton, CA (2020)
 Q-Chem 5.3.0 for Intel X86 EM64T Linux

User input:
--------------------------------------------------------------
$rem
   JOBTYPE  sp
   EXCHANGE   omegaB97X-D
   BASIS   6-311+G(2df,2pd)
   UNRESTRICTED   False
   max_scf_cycles   250
   geom_opt_max_cycles   1500
   basis2 6-31G*
   scf_algorithm rca_diis
   SYM_IGNORE  TRUE
   print_input   true
   geom_opt_dmax   80
   pop_mulliken false
   XC_GRID 000075000302
$end

$molecule
0 1
O       -4.3429616033     2.6728564510     -0.0803631515
H       -3.4448807247     2.4504470277     0.0717742776
H       -4.8964376720     3.2976365214     -0.5077311261
$end
--------------------------------------------------------------

             Standard Nuclear Orientation (Angstroms)
    I     Atom           X                Y                Z
 ----------------------------------------------------------------
    1      O      -4.3429616033     2.6728564510    -0.0803631515
    2      H      -3.4448807247     2.4504470277     0.0717742776
    3      H      -4.8964376720     3.2976365214    -0.5077311261
 ----------------------------------------------------------------

    7     -76.3568177119      1.38E-05 Convergence criterion met
    6     -76.4134315120      4.33E-06 Convergence criterion met
 Total energy in the final basis set = -76.41343151

                    Orbital Energies (a.u.)
 --------------------------------------------------------------

 Alpha MOs
 -- Occupied --
-19.2354  -1.1060  -0.6875  -0.4240  -0.4028

                    Cartesian Multipole Moments
 -----------------------------------------------------------------
    Charge (ESU x 10^10)
                 0.0000
    Dipole Moment (Debye)
         X       0.7035      Y       0.8214      Z      -0.5619
       Tot       1.2188
    Quadrupole Moments (Debye-Ang)
        XX     -10.5099     XY      -3.3336     YY      -2.0293
        XZ       3.5099     YZ      -2.4608     ZZ      -7.0248

 Total job time:  1.77s(wall), 10.01s(cpu)
        *  Thank you very much for using Q-Chem.  Have a nice day.  *
