 Q-Chem 5.3 (devel), Q-Chem, Inc., Pleasanton, CA (2020)
 Q-Chem 5.3.0 for Intel X86 EM64T Linux

User input:
--------------------------------------------------------------
$rem
   JOBTYPE  sp
   EXCHANGE   omegaB97X-D
   BASIS   6-311+G(2df,2pd)
   UNRESTRICTED   False
   max_scf_cycles   250
   geom_opt_max_cycles   1500
   basis2 6-31G*
   scf_algorithm rca_diis
   SYM_IGNORE  TRUE
   print_input   true
   geom_opt_dmax   80
   pop_mulliken false
   XC_GRID 000075000302
$end

$molecule
0 1
O       -4.3314816695     2.4851506798     0.0480325007
H       -3.5787362329     2.5640483565     -0.0059325123
H       -4.7740620976     3.3717409636     -0.5584199884
$end
--------------------------------------------------------------

             Standard Nuclear Orientation (Angstroms)
    I     Atom           X                Y                Z
 ----------------------------------------------------------------
    1      O      -4.3314816695     2.4851506798     0.0480325007
    2      H      -3.5787362329     2.5640483565    -0.0059325123
    3      H      -4.7740620976     3.3717409636    -0.5584199884
 ----------------------------------------------------------------

    7     -76.2907154462      1.51E-05 Convergence criterion met
    6     -76.3450622789      6.11E-06 Convergence criterion met
 Total energy in the final basis set = -76.34506228

                    Orbital Energies (a.u.)
 --------------------------------------------------------------

 Alpha MOs
 -- Occupied --
-19.2458  -1.1511  -0.6253  -0.4806  -0.4096

                    Cartesian Multipole Moments
 -----------------------------------------------------------------
    Charge (ESU x 10^10)
                 0.0000
    Dipole Moment (Debye)
         X       0.7106      Y       1.5603      Z      -1.0673
       Tot       2.0195
    Quadrupole Moments (Debye-Ang)
        XX     -11.3336     XY      -5.8532     YY       2.0072
        XZ       5.2458     YZ      -3.8725     ZZ      -6.8578

 Total job time:  1.82s(wall), 10.20s(cpu)
        *  Thank you very much for using Q-Chem.  Have a nice day.  *
