 Q-Chem 5.3 (devel), Q-Chem, Inc., Pleasanton, CA (2020)
 Q-Chem 5.3.0 for Intel X86 EM64T Linux

User input:
--------------------------------------------------------------
$rem
   JOBTYPE  sp
   EXCHANGE   omegaB97X-D
   BASIS   6-311+G(2df,2pd)
   UNRESTRICTED   False
   max_scf_cycles   250
   geom_opt_max_cycles   1500
   basis2 6-31G*
   scf_algorithm rca_diis
   SYM_IGNORE  TRUE
   print_input   true
   geom_opt_dmax   80
   pop_mulliken false
   XC_GRID 000075000302
$end

$molecule
0 1
O       -4.5405931503     2.4422994568     0.0773430018
H       -3.6294489374     2.7311487279     -0.1202336961
H       -4.5142379122     3.2474918153     -0.4734293057
$end
--------------------------------------------------------------

             Standard Nuclear Orientation (Angstroms)
    I     Atom           X                Y                Z
 ----------------------------------------------------------------
    1      O      -4.5405931503     2.4422994568     0.0773430018
    2      H      -3.6294489374     2.7311487279    -0.1202336961
    3      H      -4.5142379122     3.2474918153    -0.4734293057
 ----------------------------------------------------------------

    7     -76.3425242926      2.19E-05 Convergence criterion met
    7     -76.3975777101      4.98E-06 Convergence criterion met
 Total energy in the final basis set = -76.39757771

                    Orbital Energies (a.u.)
 --------------------------------------------------------------

 Alpha MOs
 -- Occupied --
-19.2687  -1.1481  -0.5584  -0.5382  -0.4148

                    Cartesian Multipole Moments
 -----------------------------------------------------------------
    Charge (ESU x 10^10)
                 0.0000
    Dipole Moment (Debye)
         X       1.4045      Y       1.6391      Z      -1.1212
       Tot       2.4323
    Quadrupole Moments (Debye-Ang)
        XX     -18.2055     XY      -3.4329     YY       2.1831
        XZ       4.8031     YZ      -3.8801     ZZ      -6.9836

 Total job time:  2.02s(wall), 11.57s(cpu)
        *  Thank you very much for using Q-Chem.  Have a nice day.  *
