 Q-Chem 5.3 (devel), Q-Chem, Inc., Pleasanton, CA (2020)
 Q-Chem 5.3.0 for Intel X86 EM64T Linux

User input:
--------------------------------------------------------------
$rem
   JOBTYPE  sp
   EXCHANGE   omegaB97X-D
   BASIS   6-311+G(2df,2pd)
   UNRESTRICTED   False
   max_scf_cycles   250
   geom_opt_max_cycles   1500
   basis2 6-31G*
   scf_algorithm rca_diis
   SYM_IGNORE  TRUE
   print_input   true
   geom_opt_dmax   80
   pop_mulliken false
   XC_GRID 000075000302
$end

$molecule
0 1
O       -4.4842825997     2.5079744453     0.0324198373
H       -3.5314793339     2.6246868158     -0.0474105971
H       -4.6685180664     3.2882787389     -0.5013292402
$end
--------------------------------------------------------------

             Standard Nuclear Orientation (Angstroms)
    I     Atom           X                Y                Z
 ----------------------------------------------------------------
    1      O      -4.4842825997     2.5079744453     0.0324198373
    2      H      -3.5314793339     2.6246868158    -0.0474105971
    3      H      -4.6685180664     3.2882787389    -0.5013292402
 ----------------------------------------------------------------

    7     -76.3813758876      8.19E-06 Convergence criterion met
    6     -76.4334234174      2.88E-06 Convergence criterion met
 Total energy in the final basis set = -76.43342342

                    Orbital Energies (a.u.)
 --------------------------------------------------------------

 Alpha MOs
 -- Occupied --
-19.2592  -1.1270  -0.6005  -0.5068  -0.4104

                    Cartesian Multipole Moments
 -----------------------------------------------------------------
    Charge (ESU x 10^10)
                 0.0000
    Dipole Moment (Debye)
         X       1.2368      Y       1.4435      Z      -0.9874
       Tot       2.1420
    Quadrupole Moments (Debye-Ang)
        XX     -16.1531     XY      -3.5942     YY       1.2158
        XZ       4.6203     YZ      -3.5591     ZZ      -6.9675

 Total job time:  1.77s(wall), 10.13s(cpu)
        *  Thank you very much for using Q-Chem.  Have a nice day.  *
