 Q-Chem 5.3 (devel), Q-Chem, Inc., Pleasanton, CA (2020)
 Q-Chem 5.3.0 for Intel X86 EM64T Linux

User input:
--------------------------------------------------------------
$rem
   JOBTYPE  sp
   EXCHANGE   omegaB97X-D
   BASIS   6-311+G(2df,2pd)
   UNRESTRICTED   False
   max_scf_cycles   250
   geom_opt_max_cycles   1500
   basis2 6-31G*
   scf_algorithm rca_diis
   SYM_IGNORE  TRUE
   print_input   true
   geom_opt_dmax   80
   pop_mulliken false
   XC_GRID 000075000302
$end

$molecule
0 1
O       -4.4894066394     2.5693835012     -0.0095855671
H       -3.4665826167     2.5758328755     -0.0139929753
H       -4.7282907439     3.2757236233     -0.4927414576
$end
--------------------------------------------------------------

             Standard Nuclear Orientation (Angstroms)
    I     Atom           X                Y                Z
 ----------------------------------------------------------------
    1      O      -4.4894066394     2.5693835012    -0.0095855671
    2      H      -3.4665826167     2.5758328755    -0.0139929753
    3      H      -4.7282907439     3.2757236233    -0.4927414576
 ----------------------------------------------------------------

    7     -76.3757210165      8.42E-06 Convergence criterion met
    6     -76.4280939575      3.45E-06 Convergence criterion met
 Total energy in the final basis set = -76.42809396

                    Orbital Energies (a.u.)
 --------------------------------------------------------------

 Alpha MOs
 -- Occupied --
-19.2526  -1.1244  -0.6279  -0.4833  -0.4087

                    Cartesian Multipole Moments
 -----------------------------------------------------------------
    Charge (ESU x 10^10)
                 0.0000
    Dipole Moment (Debye)
         X       1.2710      Y       1.2414      Z      -0.8492
       Tot       1.9692
    Quadrupole Moments (Debye-Ang)
        XX     -16.1094     XY      -2.8949     YY       0.1470
        XZ       4.2019     YZ      -3.1797     ZZ      -6.9831

 Total job time:  1.76s(wall), 9.91s(cpu)
        *  Thank you very much for using Q-Chem.  Have a nice day.  *
