 Q-Chem 5.3 (devel), Q-Chem, Inc., Pleasanton, CA (2020)
 Q-Chem 5.3.0 for Intel X86 EM64T Linux

User input:
--------------------------------------------------------------
$rem
   JOBTYPE  sp
   EXCHANGE   omegaB97X-D
   BASIS   6-311+G(2df,2pd)
   UNRESTRICTED   False
   max_scf_cycles   250
   geom_opt_max_cycles   1500
   basis2 6-31G*
   scf_algorithm rca_diis
   SYM_IGNORE  TRUE
   print_input   true
   geom_opt_dmax   80
   pop_mulliken false
   XC_GRID 000075000302
$end

$molecule
0 1
O       -4.5139824399     2.4733318426     0.0561161542
H       -3.5761953506     2.6767787057     -0.0830429786
H       -4.5941022095     3.2708294517     -0.4893931756
$end
--------------------------------------------------------------

             Standard Nuclear Orientation (Angstroms)
    I     Atom           X                Y                Z
 ----------------------------------------------------------------
    1      O      -4.5139824399     2.4733318426     0.0561161542
    2      H      -3.5761953506     2.6767787057    -0.0830429786
    3      H      -4.5941022095     3.2708294517    -0.4893931756
 ----------------------------------------------------------------

    7     -76.3675909979      1.41E-05 Convergence criterion met
    6     -76.4205688720      3.48E-06 Convergence criterion met
 Total energy in the final basis set = -76.42056887

                    Orbital Energies (a.u.)
 --------------------------------------------------------------

 Alpha MOs
 -- Occupied --
-19.2642  -1.1360  -0.5705  -0.5316  -0.4125

                    Cartesian Multipole Moments
 -----------------------------------------------------------------
    Charge (ESU x 10^10)
                 0.0000
    Dipole Moment (Debye)
         X       1.3262      Y       1.5479      Z      -1.0588
       Tot       2.2969
    Quadrupole Moments (Debye-Ang)
        XX     -17.2299     XY      -3.5236     YY       1.7355
        XZ       4.7283     YZ      -3.7320     ZZ      -6.9737

 Total job time:  1.84s(wall), 10.41s(cpu)
        *  Thank you very much for using Q-Chem.  Have a nice day.  *
