 Q-Chem 5.3 (devel), Q-Chem, Inc., Pleasanton, CA (2020)
 Q-Chem 5.3.0 for Intel X86 EM64T Linux

User input:
--------------------------------------------------------------
$rem
   JOBTYPE  sp
   EXCHANGE   omegaB97X-D
   BASIS   6-311+G(2df,2pd)
   UNRESTRICTED   False
   max_scf_cycles   250
   geom_opt_max_cycles   1500
   basis2 6-31G*
   scf_algorithm rca_diis
   SYM_IGNORE  TRUE
   print_input   true
   geom_opt_dmax   80
   pop_mulliken false
   XC_GRID 000075000302
$end

$molecule
0 1
O       -4.5637484258     2.4153060548     0.0958070940
H       -3.6906971712     2.7871599767     -0.1585470874
H       -4.4298344030     3.2184739685     -0.4535800066
$end
--------------------------------------------------------------

             Standard Nuclear Orientation (Angstroms)
    I     Atom           X                Y                Z
 ----------------------------------------------------------------
    1      O      -4.5637484258     2.4153060548     0.0958070940
    2      H      -3.6906971712     2.7871599767    -0.1585470874
    3      H      -4.4298344030     3.2184739685    -0.4535800066
 ----------------------------------------------------------------

    7     -76.3038595803      2.52E-05 Convergence criterion met
    7     -76.3617534289      6.90E-06 Convergence criterion met
 Total energy in the final basis set = -76.36175343

                    Orbital Energies (a.u.)
 --------------------------------------------------------------

 Alpha MOs
 -- Occupied --
-19.2730  -1.1652  -0.5887  -0.5052  -0.4174

                    Cartesian Multipole Moments
 -----------------------------------------------------------------
    Charge (ESU x 10^10)
                 0.0000
    Dipole Moment (Debye)
         X       1.4699      Y       1.7154      Z      -1.1734
       Tot       2.5456
    Quadrupole Moments (Debye-Ang)
        XX     -19.0490     XY      -3.3307     YY       2.5560
        XZ       4.8476     YZ      -3.9987     ZZ      -6.9892

 Total job time:  2.00s(wall), 11.33s(cpu)
        *  Thank you very much for using Q-Chem.  Have a nice day.  *
