 Q-Chem 5.3 (devel), Q-Chem, Inc., Pleasanton, CA (2020)
 Q-Chem 5.3.0 for Intel X86 EM64T Linux

User input:
--------------------------------------------------------------
$rem
   JOBTYPE  sp
   EXCHANGE   omegaB97X-D
   BASIS   6-311+G(2df,2pd)
   UNRESTRICTED   False
   max_scf_cycles   250
   geom_opt_max_cycles   1500
   basis2 6-31G*
   scf_algorithm rca_diis
   SYM_IGNORE  TRUE
   print_input   true
   geom_opt_dmax   80
   pop_mulliken false
   XC_GRID 000075000302
$end

$molecule
0 1
O       -4.0852669656     2.9735902308     -0.2860718001
H       -3.5485587311     2.2853676375     0.1846924345
H       -5.0504543032     3.1619821318     -0.4149406345
$end
--------------------------------------------------------------

             Standard Nuclear Orientation (Angstroms)
    I     Atom           X                Y                Z
 ----------------------------------------------------------------
    1      O      -4.0852669656     2.9735902308    -0.2860718001
    2      H      -3.5485587311     2.2853676375     0.1846924345
    3      H      -5.0504543032     3.1619821318    -0.4149406345
 ----------------------------------------------------------------

    7     -76.3610083601      1.42E-05 Convergence criterion met
    7     -76.4157621838      4.24E-06 Convergence criterion met
 Total energy in the final basis set = -76.41576218

                    Orbital Energies (a.u.)
 --------------------------------------------------------------

 Alpha MOs
 -- Occupied --
-19.2446  -1.0877  -0.6550  -0.4276  -0.3983

                    Cartesian Multipole Moments
 -----------------------------------------------------------------
    Charge (ESU x 10^10)
                 0.0000
    Dipole Moment (Debye)
         X      -0.8156      Y      -0.9514      Z       0.6508
       Tot       1.4121
    Quadrupole Moments (Debye-Ang)
        XX       2.3350     XY      -0.1601     YY     -12.0552
        XZ      -1.3161     YZ       1.2148     ZZ      -7.5414

 Total job time:  1.96s(wall), 11.14s(cpu)
        *  Thank you very much for using Q-Chem.  Have a nice day.  *
