 Q-Chem 5.3 (devel), Q-Chem, Inc., Pleasanton, CA (2020)
 Q-Chem 5.3.0 for Intel X86 EM64T Linux

User input:
--------------------------------------------------------------
$rem
   JOBTYPE  sp
   EXCHANGE   omegaB97X-D
   BASIS   6-311+G(2df,2pd)
   UNRESTRICTED   False
   max_scf_cycles   250
   geom_opt_max_cycles   1500
   basis2 6-31G*
   scf_algorithm rca_diis
   SYM_IGNORE  TRUE
   print_input   true
   geom_opt_dmax   80
   pop_mulliken false
   XC_GRID 000075000302
$end

$molecule
0 1
O       -4.4031313402     2.5991020400     -0.0299134684
H       -3.6511674374     2.6243229134     -0.0471621618
H       -4.6299812224     3.1975150466     -0.4392443698
$end
--------------------------------------------------------------

             Standard Nuclear Orientation (Angstroms)
    I     Atom           X                Y                Z
 ----------------------------------------------------------------
    1      O      -4.4031313402     2.5991020400    -0.0299134684
    2      H      -3.6511674374     2.6243229134    -0.0471621618
    3      H      -4.6299812224     3.1975150466    -0.4392443698
 ----------------------------------------------------------------

    7     -76.2463951984      8.72E-06 Convergence criterion met
    5     -76.3051076993      8.60E-06 Convergence criterion met
 Total energy in the final basis set = -76.30510770

                    Orbital Energies (a.u.)
 --------------------------------------------------------------

 Alpha MOs
 -- Occupied --
-19.2164  -1.2305  -0.7202  -0.5042  -0.4286

                    Cartesian Multipole Moments
 -----------------------------------------------------------------
    Charge (ESU x 10^10)
                -0.0000
    Dipole Moment (Debye)
         X       1.0352      Y       1.2226      Z      -0.8363
       Tot       1.8071
    Quadrupole Moments (Debye-Ang)
        XX     -14.2032     XY      -3.1397     YY       0.3571
        XZ       3.9570     YZ      -3.0029     ZZ      -6.5648

 Total job time:  1.67s(wall), 9.38s(cpu)
        *  Thank you very much for using Q-Chem.  Have a nice day.  *
