 Q-Chem 5.3 (devel), Q-Chem, Inc., Pleasanton, CA (2020)
 Q-Chem 5.3.0 for Intel X86 EM64T Linux

User input:
--------------------------------------------------------------
$molecule
0 1
C 1.2129785836 0.0886242511 0.351396097
C 2.5166033722 -0.4396613124 -0.2333193183
C 2.567467481 -0.2840735681 -1.7385840877
H 1.1921000123 -0.0311256175 1.4339874723
H 0.3516313313 -0.4426412817 -0.0576312067
H 1.0821361331 1.1500323565 0.1327555536
H 2.4619163389 0.7755366994 -2.0030845287
H 1.7273924795 -0.8236914396 -2.1935278236
O 3.8023028453 -0.7956677191 -2.204391348
H 3.3684004951 0.087625019 0.2004514514
H 2.6421454538 -1.4959852049 0.0120361448
H 3.8444032375 -0.7020278643 -3.1547716009
$end

$rem
   JOBTYPE         freq
   EXCHANGE omegaB97X-D
   BASIS 6-311+G(2df,2pd)
   max_scf_cycles = 250
   scf_algorithm = rca_diis
   sym_ignore = True
   symmetry = False
   print_input = True
   XC_GRID = 000075000302
   mem_total = 20000
   mem_static = 450
   pop_mulliken = False
$end

--------------------------------------------------------------

             Standard Nuclear Orientation (Angstroms)
    I     Atom           X                Y                Z
 ----------------------------------------------------------------
    1      C       1.2129785836     0.0886242511     0.3513960970
    2      C       2.5166033722    -0.4396613124    -0.2333193183
    3      C       2.5674674810    -0.2840735681    -1.7385840877
    4      H       1.1921000123    -0.0311256175     1.4339874723
    5      H       0.3516313313    -0.4426412817    -0.0576312067
    6      H       1.0821361331     1.1500323565     0.1327555536
    7      H       2.4619163389     0.7755366994    -2.0030845287
    8      H       1.7273924795    -0.8236914396    -2.1935278236
    9      O       3.8023028453    -0.7956677191    -2.2043913480
   10      H       3.3684004951     0.0876250190     0.2004514514
   11      H       2.6421454538    -1.4959852049     0.0120361448
   12      H       3.8444032375    -0.7020278643    -3.1547716009
 ----------------------------------------------------------------

   12    -194.3656794386      8.08E-09 Convergence criterion met
 Total energy in the final basis set = -194.36567944

                    Orbital Energies (a.u.)
 --------------------------------------------------------------

 Alpha MOs
 -- Occupied --
-19.2463 -10.3247 -10.2741 -10.2714  -1.1256  -0.8825  -0.7729  -0.6822
 -0.6049  -0.5683  -0.5213  -0.4949  -0.4549  -0.4471  -0.4199  -0.4082
 -0.3609

                    Cartesian Multipole Moments
 -----------------------------------------------------------------
    Charge (ESU x 10^10)
                 0.0000
    Dipole Moment (Debye)
         X      -1.1511      Y       0.6247      Z      -0.8093
       Tot       1.5396
    Quadrupole Moments (Debye-Ang)
        XX     -35.1180     XY       3.2440     YY     -27.6575
        XZ      -1.3627     YZ      -0.6870     ZZ     -20.3153

 Frequency:       131.71                 226.77                 252.93
 Force Cnst:      0.0248                 0.0332                 0.0412
 Red. Mass:       2.4300                 1.0949                 1.0936
 IR Intens:        6.891                  7.038                109.297
 Frequency:       281.69                 465.03                 771.45
 Force Cnst:      0.1204                 0.5280                 0.3782
 Red. Mass:       2.5753                 4.1438                 1.0786
 IR Intens:        4.221                 10.799                  1.106
 Frequency:       898.77                 910.28                1054.04
 Force Cnst:      0.8265                 0.5530                 2.0267
 Red. Mass:       1.7367                 1.1326                 3.0962
 IR Intens:        5.644                  1.728                  7.290
 Frequency:      1086.01                1116.40                1192.28
 Force Cnst:      1.3580                 1.9699                 1.3475
 Red. Mass:       1.9543                 2.6826                 1.6089
 IR Intens:       80.437                 27.981                  0.873
 Frequency:      1267.69                1277.14                1329.27
 Force Cnst:      1.2144                 1.1629                 1.1241
 Red. Mass:       1.2826                 1.2101                 1.0798
 IR Intens:       47.191                  0.181                  0.104
 Frequency:      1355.69                1421.46                1463.79
 Force Cnst:      1.5379                 1.5104                 1.8365
 Red. Mass:       1.4202                 1.2687                 1.4547
 IR Intens:        8.778                  1.940                  2.928
 Frequency:      1500.36                1506.49                1513.49
 Force Cnst:      1.3855                 1.3897                 1.4914
 Red. Mass:       1.0446                 1.0393                 1.1050
 IR Intens:        1.535                  7.881                  5.248
 Frequency:      1530.74                2995.59                3027.73
 Force Cnst:      1.5021                 5.5790                 5.9761
 Red. Mass:       1.0881                 1.0552                 1.1064
 IR Intens:        5.587                 58.570                 40.982
 Frequency:      3051.78                3066.80                3102.52
 Force Cnst:      5.6882                 5.8732                 6.2580
 Red. Mass:       1.0366                 1.0599                 1.1035
 IR Intens:       27.591                 26.777                  1.439
 Frequency:      3126.10                3134.05                3934.32
 Force Cnst:      6.3563                 6.3710                 9.7276
 Red. Mass:       1.1040                 1.1009                 1.0666
 IR Intens:       61.720                 30.124                 38.945

 STANDARD THERMODYNAMIC QUANTITIES AT   298.15 K  AND     1.00 ATM

   This Molecule has  0 Imaginary Frequencies
   Zero point vibrational energy:       68.609 kcal/mol

   Atom    1 Element C  Has Mass   12.00000
   Atom    2 Element C  Has Mass   12.00000
   Atom    3 Element C  Has Mass   12.00000
   Atom    4 Element H  Has Mass    1.00783
   Atom    5 Element H  Has Mass    1.00783
   Atom    6 Element H  Has Mass    1.00783
   Atom    7 Element H  Has Mass    1.00783
   Atom    8 Element H  Has Mass    1.00783
   Atom    9 Element O  Has Mass   15.99491
   Atom   10 Element H  Has Mass    1.00783
   Atom   11 Element H  Has Mass    1.00783
   Atom   12 Element H  Has Mass    1.00783
   Molecular Mass:    60.057550 amu
   Principal axes and moments of inertia in amu*Bohr^2:
                             1           2           3
    Eigenvalues --       67.28781   471.37346   505.15221
          X              -0.63752     0.64935     0.41462
          Y               0.20422    -0.37649     0.90363
          Z               0.74287     0.66076     0.10741
   Rotational Symmetry Number is   1
   The Molecule is an Asymmetric Top
   Translational Enthalpy:        0.889 kcal/mol
   Rotational Enthalpy:           0.889 kcal/mol
   Vibrational Enthalpy:         70.327 kcal/mol
   gas constant (RT):             0.592 kcal/mol
   Translational Entropy:        38.198  cal/mol.K
   Rotational Entropy:           24.286  cal/mol.K
   Vibrational Entropy:           9.741  cal/mol.K

   Total Enthalpy:               72.697 kcal/mol
   Total Entropy:                72.225  cal/mol.K

 Total job time:  397.18s(wall), 3068.12s(cpu)
        *  Thank you very much for using Q-Chem.  Have a nice day.  *
