 Q-Chem 5.3 (devel), Q-Chem, Inc., Pleasanton, CA (2020)
 Q-Chem 5.3.0 for Intel X86 EM64T Linux

User input:
--------------------------------------------------------------
$rem
   JOBTYPE  sp
   EXCHANGE   omegaB97X-D
   BASIS   6-311+G(2df,2pd)
   UNRESTRICTED   False
   max_scf_cycles   250
   geom_opt_max_cycles   1500
   basis2 6-31G*
   scf_algorithm rca_diis
   SYM_IGNORE  TRUE
   print_input   true
   geom_opt_dmax   80
   pop_mulliken false
   XC_GRID 000075000302
$end

$molecule
0 1
C       -5.5429185634     0.5363783813     -0.0725173899
C       -4.3847410680     1.3308594280     0.0662069064
H       -5.8904429089     0.3074948183     -1.0717025390
H       -6.3019386401     0.5974651767     0.6958717814
H       -4.4936428607     -0.3387362913     0.3142920335
O       -3.3148535569     -0.0790489110     0.6208233509
H       -4.2252049887     1.9347202990     0.9484079407
H       -3.8229723958     1.6465504823     -0.8040377458
H       -2.7040174148     -0.0725461261     -0.1244541748
$end
--------------------------------------------------------------

             Standard Nuclear Orientation (Angstroms)
    I     Atom           X                Y                Z
 ----------------------------------------------------------------
    1      C      -5.5429185634     0.5363783813    -0.0725173899
    2      C      -4.3847410680     1.3308594280     0.0662069064
    3      H      -5.8904429089     0.3074948183    -1.0717025390
    4      H      -6.3019386401     0.5974651767     0.6958717814
    5      H      -4.4936428607    -0.3387362913     0.3142920335
    6      O      -3.3148535569    -0.0790489110     0.6208233509
    7      H      -4.2252049887     1.9347202990     0.9484079407
    8      H      -3.8229723958     1.6465504823    -0.8040377458
    9      H      -2.7040174148    -0.0725461261    -0.1244541748
 ----------------------------------------------------------------

    7    -154.8584031590      4.54E-05 Convergence criterion met
    7    -154.9336321448      7.83E-06 Convergence criterion met
 Total energy in the final basis set = -154.93363214

                    Orbital Energies (a.u.)
 --------------------------------------------------------------

 Alpha MOs
 -- Occupied --
-19.2454 -10.3567 -10.2546  -1.0937  -0.8742  -0.7001  -0.6113  -0.5715
 -0.5063  -0.4651  -0.4469  -0.4261  -0.3034

                    Cartesian Multipole Moments
 -----------------------------------------------------------------
    Charge (ESU x 10^10)
                -0.0000
    Dipole Moment (Debye)
         X       0.4626      Y       1.3251      Z      -1.5052
       Tot       2.0580
    Quadrupole Moments (Debye-Ang)
        XX     -24.8006     XY      -4.5377     YY     -19.4571
        XZ       3.3384     YZ       0.8628     ZZ     -20.7516

 Total job time:  14.92s(wall), 78.73s(cpu)
        *  Thank you very much for using Q-Chem.  Have a nice day.  *
