 Q-Chem 5.3 (devel), Q-Chem, Inc., Pleasanton, CA (2020)
 Q-Chem 5.3.0 for Intel X86 EM64T Linux

User input:
--------------------------------------------------------------
$rem
   JOBTYPE  sp
   EXCHANGE   omegaB97X-D
   BASIS   6-311+G(2df,2pd)
   UNRESTRICTED   False
   max_scf_cycles   250
   geom_opt_max_cycles   1500
   basis2 6-31G*
   scf_algorithm rca_diis
   SYM_IGNORE  TRUE
   print_input   true
   geom_opt_dmax   80
   pop_mulliken false
   XC_GRID 000075000302
$end

$molecule
0 1
C       -5.5038724256     0.4513580858     -0.2581996796
C       -4.3147607839     1.1993971986     -0.3933686993
H       -5.6269430926     -0.4306307128     -0.8734079276
H       -6.4104953267     0.9742179321     0.0155109128
H       -4.7126441000     0.1672483894     0.8862067768
O       -3.6191465524     0.6499170343     1.2358312889
H       -4.2607966511     2.0440999935     -1.0656360849
H       -3.3563885563     0.7661819442     -0.1356520832
H       -2.8756849087     0.0413473922     1.1616056593
$end
--------------------------------------------------------------

             Standard Nuclear Orientation (Angstroms)
    I     Atom           X                Y                Z
 ----------------------------------------------------------------
    1      C      -5.5038724256     0.4513580858    -0.2581996796
    2      C      -4.3147607839     1.1993971986    -0.3933686993
    3      H      -5.6269430926    -0.4306307128    -0.8734079276
    4      H      -6.4104953267     0.9742179321     0.0155109128
    5      H      -4.7126441000     0.1672483894     0.8862067768
    6      O      -3.6191465524     0.6499170343     1.2358312889
    7      H      -4.2607966511     2.0440999935    -1.0656360849
    8      H      -3.3563885563     0.7661819442    -0.1356520832
    9      H      -2.8756849087     0.0413473922     1.1616056593
 ----------------------------------------------------------------

    7    -154.7391276760      7.64E-05 Convergence criterion met
    8    -154.8182229223      6.75E-06 Convergence criterion met
 Total energy in the final basis set = -154.81822292

                    Orbital Energies (a.u.)
 --------------------------------------------------------------

 Alpha MOs
 -- Occupied --
-19.2541 -10.3361 -10.2571  -1.1239  -0.8708  -0.7007  -0.6310  -0.5671
 -0.5158  -0.4947  -0.4596  -0.3317  -0.3094

                    Cartesian Multipole Moments
 -----------------------------------------------------------------
    Charge (ESU x 10^10)
                 0.0000
    Dipole Moment (Debye)
         X       1.0661      Y      -0.5107      Z      -1.2044
       Tot       1.6876
    Quadrupole Moments (Debye-Ang)
        XX     -28.2857     XY       1.1036     YY     -20.3709
        XZ       5.2537     YZ      -2.4906     ZZ     -23.5255

 Total job time:  15.70s(wall), 83.38s(cpu)
        *  Thank you very much for using Q-Chem.  Have a nice day.  *
