 Q-Chem 5.3 (devel), Q-Chem, Inc., Pleasanton, CA (2020)
 Q-Chem 5.3.0 for Intel X86 EM64T Linux

User input:
--------------------------------------------------------------
$rem
   JOBTYPE  sp
   EXCHANGE   omegaB97X-D
   BASIS   6-311+G(2df,2pd)
   UNRESTRICTED   False
   max_scf_cycles   250
   geom_opt_max_cycles   1500
   basis2 6-31G*
   scf_algorithm rca_diis
   SYM_IGNORE  TRUE
   print_input   true
   geom_opt_dmax   80
   pop_mulliken false
   XC_GRID 000075000302
$end

$molecule
0 1
C       -5.5394149765     0.5330450598     -0.0724149537
C       -4.3577091891     1.2932022054     0.0600698401
H       -5.8939119973     0.3069025870     -1.0697730953
H       -6.2960794423     0.6231204710     0.6954459051
H       -4.5170063034     -0.3703268921     0.3213188928
O       -3.3308379023     -0.1440017973     0.6258261712
H       -4.1797976877     1.8989018033     0.9374830107
H       -3.7868315200     1.5848830917     -0.8126223078
H       -2.7791433786     0.1374107282     -0.1124432999
$end
--------------------------------------------------------------

             Standard Nuclear Orientation (Angstroms)
    I     Atom           X                Y                Z
 ----------------------------------------------------------------
    1      C      -5.5394149765     0.5330450598    -0.0724149537
    2      C      -4.3577091891     1.2932022054     0.0600698401
    3      H      -5.8939119973     0.3069025870    -1.0697730953
    4      H      -6.2960794423     0.6231204710     0.6954459051
    5      H      -4.5170063034    -0.3703268921     0.3213188928
    6      O      -3.3308379023    -0.1440017973     0.6258261712
    7      H      -4.1797976877     1.8989018033     0.9374830107
    8      H      -3.7868315200     1.5848830917    -0.8126223078
    9      H      -2.7791433786     0.1374107282    -0.1124432999
 ----------------------------------------------------------------

    7    -154.8453724637      5.13E-05 Convergence criterion met
    8    -154.9217596593      3.81E-06 Convergence criterion met
 Total energy in the final basis set = -154.92175966

                    Orbital Energies (a.u.)
 --------------------------------------------------------------

 Alpha MOs
 -- Occupied --
-19.2432 -10.3627 -10.2568  -1.0974  -0.8755  -0.7072  -0.6105  -0.5755
 -0.5082  -0.4748  -0.4535  -0.4161  -0.3026

                    Cartesian Multipole Moments
 -----------------------------------------------------------------
    Charge (ESU x 10^10)
                -0.0000
    Dipole Moment (Debye)
         X       0.2957      Y       1.7341      Z      -1.4563
       Tot       2.2837
    Quadrupole Moments (Debye-Ang)
        XX     -23.6998     XY      -5.4952     YY     -19.5376
        XZ       3.2173     YZ       0.7521     ZZ     -20.7180

 Total job time:  15.80s(wall), 83.82s(cpu)
        *  Thank you very much for using Q-Chem.  Have a nice day.  *
