 Q-Chem 5.3 (devel), Q-Chem, Inc., Pleasanton, CA (2020)
 Q-Chem 5.3.0 for Intel X86 EM64T Linux

User input:
--------------------------------------------------------------
$rem
   JOBTYPE  sp
   EXCHANGE   omegaB97X-D
   BASIS   6-311+G(2df,2pd)
   UNRESTRICTED   False
   max_scf_cycles   250
   geom_opt_max_cycles   1500
   basis2 6-31G*
   scf_algorithm rca_diis
   SYM_IGNORE  TRUE
   print_input   true
   geom_opt_dmax   80
   pop_mulliken false
   XC_GRID 000075000302
$end

$molecule
0 1
C       -5.5292970448     0.5293966558     -0.0733024360
C       -4.2973450886     1.2177924565     -0.0883115634
H       -6.0215380482     0.3395097861     -1.0183810516
H       -6.1745720222     0.6512702055     0.7863672875
H       -4.5202734050     -0.4375574470     0.1782880602
O       -3.2935287359     -0.2849409146     0.3291155040
H       -3.9727716253     1.7986162641     0.7635535366
H       -3.8267782698     1.4893508539     -1.0250044391
H       -3.0446281574     0.5596993967     0.7205652650
$end
--------------------------------------------------------------

             Standard Nuclear Orientation (Angstroms)
    I     Atom           X                Y                Z
 ----------------------------------------------------------------
    1      C      -5.5292970448     0.5293966558    -0.0733024360
    2      C      -4.2973450886     1.2177924565    -0.0883115634
    3      H      -6.0215380482     0.3395097861    -1.0183810516
    4      H      -6.1745720222     0.6512702055     0.7863672875
    5      H      -4.5202734050    -0.4375574470     0.1782880602
    6      O      -3.2935287359    -0.2849409146     0.3291155040
    7      H      -3.9727716253     1.7986162641     0.7635535366
    8      H      -3.8267782698     1.4893508539    -1.0250044391
    9      H      -3.0446281574     0.5596993967     0.7205652650
 ----------------------------------------------------------------

    7    -154.8116126762      5.83E-05 Convergence criterion met
    8    -154.8919299063      3.34E-06 Convergence criterion met
 Total energy in the final basis set = -154.89192991

                    Orbital Energies (a.u.)
 --------------------------------------------------------------

 Alpha MOs
 -- Occupied --
-19.2300 -10.3778 -10.2632  -1.1007  -0.8801  -0.7277  -0.6109  -0.5821
 -0.5125  -0.4863  -0.4622  -0.3938  -0.3017

                    Cartesian Multipole Moments
 -----------------------------------------------------------------
    Charge (ESU x 10^10)
                -0.0000
    Dipole Moment (Debye)
         X      -0.4214      Y       2.6196      Z       0.0640
       Tot       2.6541
    Quadrupole Moments (Debye-Ang)
        XX     -19.2391     XY      -7.7932     YY     -18.9595
        XZ      -0.0685     YZ       1.2493     ZZ     -19.2409

 Total job time:  16.06s(wall), 84.94s(cpu)
        *  Thank you very much for using Q-Chem.  Have a nice day.  *
