 Q-Chem 5.3 (devel), Q-Chem, Inc., Pleasanton, CA (2020)
 Q-Chem 5.3.0 for Intel X86 EM64T Linux

User input:
--------------------------------------------------------------
$rem
   JOBTYPE  sp
   EXCHANGE   omegaB97X-D
   BASIS   6-311+G(2df,2pd)
   UNRESTRICTED   False
   max_scf_cycles   250
   geom_opt_max_cycles   1500
   basis2 6-31G*
   scf_algorithm rca_diis
   SYM_IGNORE  TRUE
   print_input   true
   geom_opt_dmax   80
   pop_mulliken false
   XC_GRID 000075000302
$end

$molecule
0 1
C       -5.5384039682     0.5436841322     -0.0831458507
C       -4.3712161225     1.3284379264     -0.1999948558
H       -6.0484885560     0.2460440444     -0.9902047848
H       -6.1583077302     0.6737418830     0.7938201117
H       -4.4416008790     -0.3160453064     0.1894619190
O       -3.2274926163     -0.0522835160     0.2749841449
H       -4.0650168937     1.9940936594     0.5946892667
H       -3.9618000105     1.5694653259     -1.1730595388
H       -2.8684056210     -0.1240008919     1.1663397512
$end
--------------------------------------------------------------

             Standard Nuclear Orientation (Angstroms)
    I     Atom           X                Y                Z
 ----------------------------------------------------------------
    1      C      -5.5384039682     0.5436841322    -0.0831458507
    2      C      -4.3712161225     1.3284379264    -0.1999948558
    3      H      -6.0484885560     0.2460440444    -0.9902047848
    4      H      -6.1583077302     0.6737418830     0.7938201117
    5      H      -4.4416008790    -0.3160453064     0.1894619190
    6      O      -3.2274926163    -0.0522835160     0.2749841449
    7      H      -4.0650168937     1.9940936594     0.5946892667
    8      H      -3.9618000105     1.5694653259    -1.1730595388
    9      H      -2.8684056210    -0.1240008919     1.1663397512
 ----------------------------------------------------------------

    7    -154.8599439953      3.99E-05 Convergence criterion met
    7    -154.9356596360      4.62E-06 Convergence criterion met
 Total energy in the final basis set = -154.93565964

                    Orbital Energies (a.u.)
 --------------------------------------------------------------

 Alpha MOs
 -- Occupied --
-19.2386 -10.3542 -10.2554  -1.0851  -0.8750  -0.6977  -0.6100  -0.5695
 -0.5085  -0.4543  -0.4419  -0.4203  -0.3057

                    Cartesian Multipole Moments
 -----------------------------------------------------------------
    Charge (ESU x 10^10)
                 0.0000
    Dipole Moment (Debye)
         X      -0.0644      Y       1.2698      Z       0.9738
       Tot       1.6015
    Quadrupole Moments (Debye-Ang)
        XX     -21.9711     XY      -4.1758     YY     -19.4382
        XZ      -2.3479     YZ      -0.2831     ZZ     -17.2816

 Total job time:  13.69s(wall), 71.41s(cpu)
        *  Thank you very much for using Q-Chem.  Have a nice day.  *
