 Q-Chem 5.3 (devel), Q-Chem, Inc., Pleasanton, CA (2020)
 Q-Chem 5.3.0 for Intel X86 EM64T Linux

User input:
--------------------------------------------------------------
$rem
   JOBTYPE  sp
   EXCHANGE   omegaB97X-D
   BASIS   6-311+G(2df,2pd)
   UNRESTRICTED   False
   max_scf_cycles   250
   geom_opt_max_cycles   1500
   basis2 6-31G*
   scf_algorithm rca_diis
   SYM_IGNORE  TRUE
   print_input   true
   geom_opt_dmax   80
   pop_mulliken false
   XC_GRID 000075000302
$end

$molecule
0 1
C       -5.5303246408     0.5317594921     -0.0751222454
C       -4.3099636342     1.2388646007     -0.1255311110
H       -6.0433905195     0.3284512999     -1.0062296514
H       -6.1553855934     0.6490820296     0.7999773030
H       -4.5003811456     -0.4180144793     0.1563351379
O       -3.2727156306     -0.2456603316     0.2749717174
H       -3.9729135613     1.8299026185     0.7143794122
H       -3.8675837651     1.5117595750     -1.0754779631
H       -3.0280739066     0.4369924523     0.9095875638
$end
--------------------------------------------------------------

             Standard Nuclear Orientation (Angstroms)
    I     Atom           X                Y                Z
 ----------------------------------------------------------------
    1      C      -5.5303246408     0.5317594921    -0.0751222454
    2      C      -4.3099636342     1.2388646007    -0.1255311110
    3      H      -6.0433905195     0.3284512999    -1.0062296514
    4      H      -6.1553855934     0.6490820296     0.7999773030
    5      H      -4.5003811456    -0.4180144793     0.1563351379
    6      O      -3.2727156306    -0.2456603316     0.2749717174
    7      H      -3.9729135613     1.8299026185     0.7143794122
    8      H      -3.8675837651     1.5117595750    -1.0754779631
    9      H      -3.0280739066     0.4369924523     0.9095875638
 ----------------------------------------------------------------

    7    -154.8341182277      5.42E-05 Convergence criterion met
    8    -154.9117249863      2.75E-06 Convergence criterion met
 Total energy in the final basis set = -154.91172499

                    Orbital Energies (a.u.)
 --------------------------------------------------------------

 Alpha MOs
 -- Occupied --
-19.2395 -10.3679 -10.2592  -1.0989  -0.8770  -0.7139  -0.6121  -0.5774
 -0.5101  -0.4790  -0.4553  -0.4108  -0.3024

                    Cartesian Multipole Moments
 -----------------------------------------------------------------
    Charge (ESU x 10^10)
                -0.0000
    Dipole Moment (Debye)
         X      -0.2454      Y       2.3144      Z       0.4599
       Tot       2.3723
    Quadrupole Moments (Debye-Ang)
        XX     -20.8316     XY      -6.8847     YY     -19.3643
        XZ      -1.0965     YZ       1.1520     ZZ     -18.4751

 Total job time:  15.90s(wall), 84.30s(cpu)
        *  Thank you very much for using Q-Chem.  Have a nice day.  *
