 Q-Chem 5.3 (devel), Q-Chem, Inc., Pleasanton, CA (2020)
 Q-Chem 5.3.0 for Intel X86 EM64T Linux

User input:
--------------------------------------------------------------
$rem
   JOBTYPE  sp
   EXCHANGE   omegaB97X-D
   BASIS   6-311+G(2df,2pd)
   UNRESTRICTED   False
   max_scf_cycles   250
   geom_opt_max_cycles   1500
   basis2 6-31G*
   scf_algorithm rca_diis
   SYM_IGNORE  TRUE
   print_input   true
   geom_opt_dmax   80
   pop_mulliken false
   XC_GRID 000075000302
$end

$molecule
0 1
C       -5.5449882698     0.5290374735     -0.1560849422
C       -4.3976366913     1.3508637268     -0.1584596941
H       -5.8436887547     0.0636776541     -1.0865418607
H       -6.3399640643     0.7600072376     0.5402852512
H       -4.5121449474     -0.2130769997     0.4755221352
O       -3.3502486158     0.1296594323     0.7644371049
H       -3.5894296327     1.1820553911     0.5391673362
H       -4.4340783837     2.3505166943     -0.5731120605
H       -2.6685530376     -0.2896033527     0.2276768932
$end
--------------------------------------------------------------

             Standard Nuclear Orientation (Angstroms)
    I     Atom           X                Y                Z
 ----------------------------------------------------------------
    1      C      -5.5449882698     0.5290374735    -0.1560849422
    2      C      -4.3976366913     1.3508637268    -0.1584596941
    3      H      -5.8436887547     0.0636776541    -1.0865418607
    4      H      -6.3399640643     0.7600072376     0.5402852512
    5      H      -4.5121449474    -0.2130769997     0.4755221352
    6      O      -3.3502486158     0.1296594323     0.7644371049
    7      H      -3.5894296327     1.1820553911     0.5391673362
    8      H      -4.4340783837     2.3505166943    -0.5731120605
    9      H      -2.6685530376    -0.2896033527     0.2276768932
 ----------------------------------------------------------------

    9    -154.6434970382      3.56E-05 Convergence criterion met
   11    -154.7269909899      5.95E-06 Convergence criterion met
 Total energy in the final basis set = -154.72699099

                    Orbital Energies (a.u.)
 --------------------------------------------------------------

 Alpha MOs
 -- Occupied --
-19.2768 -10.3018 -10.2554  -1.1649  -0.8659  -0.7216  -0.6497  -0.5707
 -0.5250  -0.4969  -0.4663  -0.3210  -0.2683

                    Cartesian Multipole Moments
 -----------------------------------------------------------------
    Charge (ESU x 10^10)
                -0.0000
    Dipole Moment (Debye)
         X       1.1918      Y      -0.1725      Z      -0.9248
       Tot       1.5184
    Quadrupole Moments (Debye-Ang)
        XX     -29.2117     XY      -0.1794     YY     -20.2516
        XZ       2.1766     YZ       0.1680     ZZ     -23.2345

 Total job time:  19.23s(wall), 104.86s(cpu)
        *  Thank you very much for using Q-Chem.  Have a nice day.  *
