 Q-Chem 5.3 (devel), Q-Chem, Inc., Pleasanton, CA (2020)
 Q-Chem 5.3.0 for Intel X86 EM64T Linux

User input:
--------------------------------------------------------------
$rem
   JOBTYPE  sp
   EXCHANGE   omegaB97X-D
   BASIS   6-311+G(2df,2pd)
   UNRESTRICTED   False
   max_scf_cycles   250
   geom_opt_max_cycles   1500
   basis2 6-31G*
   scf_algorithm rca_diis
   SYM_IGNORE  TRUE
   print_input   true
   geom_opt_dmax   80
   pop_mulliken false
   XC_GRID 000075000302
$end

$molecule
0 1
C       -5.5474906155     0.5514238579     -0.0845657295
C       -4.3894454318     1.3540470202     -0.1654797980
H       -5.8919530342     0.0570443677     -0.9837133148
H       -6.3089051491     0.8205890290     0.6352002121
H       -4.4997819194     -0.1834909498     0.5307662409
O       -3.3218632388     0.1509004507     0.7579955966
H       -4.2324548580     2.1768337388     0.5177144296
H       -3.8248128201     1.4191662657     -1.0871739638
H       -2.6640253304     -0.4833765232     0.4521464902
$end
--------------------------------------------------------------

             Standard Nuclear Orientation (Angstroms)
    I     Atom           X                Y                Z
 ----------------------------------------------------------------
    1      C      -5.5474906155     0.5514238579    -0.0845657295
    2      C      -4.3894454318     1.3540470202    -0.1654797980
    3      H      -5.8919530342     0.0570443677    -0.9837133148
    4      H      -6.3089051491     0.8205890290     0.6352002121
    5      H      -4.4997819194    -0.1834909498     0.5307662409
    6      O      -3.3218632388     0.1509004507     0.7579955966
    7      H      -4.2324548580     2.1768337388     0.5177144296
    8      H      -3.8248128201     1.4191662657    -1.0871739638
    9      H      -2.6640253304    -0.4833765232     0.4521464902
 ----------------------------------------------------------------

    7    -154.8579540588      3.82E-05 Convergence criterion met
    7    -154.9344770726      5.31E-06 Convergence criterion met
 Total energy in the final basis set = -154.93447707

                    Orbital Energies (a.u.)
 --------------------------------------------------------------

 Alpha MOs
 -- Occupied --
-19.2349 -10.3537 -10.2561  -1.0811  -0.8755  -0.6975  -0.6096  -0.5688
 -0.5074  -0.4538  -0.4389  -0.4135  -0.3081

                    Cartesian Multipole Moments
 -----------------------------------------------------------------
    Charge (ESU x 10^10)
                 0.0000
    Dipole Moment (Debye)
         X       0.4291      Y       0.2195      Z      -1.3858
       Tot       1.4672
    Quadrupole Moments (Debye-Ang)
        XX     -24.0736     XY      -1.9333     YY     -18.1927
        XZ       3.8453     YZ       0.0601     ZZ     -21.8739

 Total job time:  13.52s(wall), 70.51s(cpu)
        *  Thank you very much for using Q-Chem.  Have a nice day.  *
