 Q-Chem 5.3 (devel), Q-Chem, Inc., Pleasanton, CA (2020)
 Q-Chem 5.3.0 for Intel X86 EM64T Linux

User input:
--------------------------------------------------------------
$rem
   JOBTYPE  sp
   EXCHANGE   omegaB97X-D
   BASIS   6-311+G(2df,2pd)
   UNRESTRICTED   False
   max_scf_cycles   250
   geom_opt_max_cycles   1500
   basis2 6-31G*
   scf_algorithm rca_diis
   SYM_IGNORE  TRUE
   print_input   true
   geom_opt_dmax   80
   pop_mulliken false
   XC_GRID 000075000302
$end

$molecule
0 1
C       -5.5477610561     0.5541177145     -0.0871148870
C       -4.4118023580     1.3836983474     -0.2020648073
H       -5.9602142282     0.1223420386     -0.9898795102
H       -6.2492043715     0.7526899846     0.7121418433
H       -4.4418126663     -0.2040104567     0.3803747444
O       -3.2535883435     0.1358649769     0.5338376233
H       -4.2088878931     2.1554378653     0.5270594713
H       -3.9280682145     1.5297008087     -1.1597992158
H       -2.6793932662     -0.5667040223     0.8583349014
$end
--------------------------------------------------------------

             Standard Nuclear Orientation (Angstroms)
    I     Atom           X                Y                Z
 ----------------------------------------------------------------
    1      C      -5.5477610561     0.5541177145    -0.0871148870
    2      C      -4.4118023580     1.3836983474    -0.2020648073
    3      H      -5.9602142282     0.1223420386    -0.9898795102
    4      H      -6.2492043715     0.7526899846     0.7121418433
    5      H      -4.4418126663    -0.2040104567     0.3803747444
    6      O      -3.2535883435     0.1358649769     0.5338376233
    7      H      -4.2088878931     2.1554378653     0.5270594713
    8      H      -3.9280682145     1.5297008087    -1.1597992158
    9      H      -2.6793932662    -0.5667040223     0.8583349014
 ----------------------------------------------------------------

    7    -154.8399858453      4.42E-05 Convergence criterion met
    8    -154.9201340228      3.22E-06 Convergence criterion met
 Total energy in the final basis set = -154.92013402

                    Orbital Energies (a.u.)
 --------------------------------------------------------------

 Alpha MOs
 -- Occupied --
-19.2143 -10.3556 -10.2637  -1.0642  -0.8783  -0.7008  -0.6047  -0.5706
 -0.5110  -0.4541  -0.4368  -0.3718  -0.3187

                    Cartesian Multipole Moments
 -----------------------------------------------------------------
    Charge (ESU x 10^10)
                 0.0000
    Dipole Moment (Debye)
         X      -0.2090      Y       0.2436      Z      -0.3024
       Tot       0.4410
    Quadrupole Moments (Debye-Ang)
        XX     -19.1761     XY      -1.9514     YY     -17.8357
        XZ       1.2009     YZ      -0.8791     ZZ     -19.8589

 Total job time:  12.88s(wall), 67.60s(cpu)
        *  Thank you very much for using Q-Chem.  Have a nice day.  *
