 Q-Chem 5.3 (devel), Q-Chem, Inc., Pleasanton, CA (2020)
 Q-Chem 5.3.0 for Intel X86 EM64T Linux

User input:
--------------------------------------------------------------
$rem
   JOBTYPE  sp
   EXCHANGE   omegaB97X-D
   BASIS   6-311+G(2df,2pd)
   UNRESTRICTED   False
   max_scf_cycles   250
   geom_opt_max_cycles   1500
   basis2 6-31G*
   scf_algorithm rca_diis
   SYM_IGNORE  TRUE
   print_input   true
   geom_opt_dmax   80
   pop_mulliken false
   XC_GRID 000075000302
$end

$molecule
0 1
C       -5.5544545066     0.5055410000     -0.2212017294
C       -4.4103762073     1.3264000388     -0.3165692202
H       -5.7599414497     -0.1828417573     -1.0307918195
H       -6.4144098533     0.8844248879     0.3146982548
H       -4.5919243675     -0.0332650985     0.6730300302
O       -3.4637880264     0.3962947319     0.9791835128
H       -3.5512705699     1.0202536041     -0.8967331983
H       -4.2015590216     2.0741547086     0.4383009502
H       -2.7330083950     -0.1278248584     0.6329733826
$end
--------------------------------------------------------------

             Standard Nuclear Orientation (Angstroms)
    I     Atom           X                Y                Z
 ----------------------------------------------------------------
    1      C      -5.5544545066     0.5055410000    -0.2212017294
    2      C      -4.4103762073     1.3264000388    -0.3165692202
    3      H      -5.7599414497    -0.1828417573    -1.0307918195
    4      H      -6.4144098533     0.8844248879     0.3146982548
    5      H      -4.5919243675    -0.0332650985     0.6730300302
    6      O      -3.4637880264     0.3962947319     0.9791835128
    7      H      -3.5512705699     1.0202536041    -0.8967331983
    8      H      -4.2015590216     2.0741547086     0.4383009502
    9      H      -2.7330083950    -0.1278248584     0.6329733826
 ----------------------------------------------------------------

    7    -154.8391718435      4.18E-05 Convergence criterion met
    8    -154.9151965365      3.69E-06 Convergence criterion met
 Total energy in the final basis set = -154.91519654

                    Orbital Energies (a.u.)
 --------------------------------------------------------------

 Alpha MOs
 -- Occupied --
-19.2317 -10.3476 -10.2628  -1.0882  -0.8757  -0.7018  -0.6067  -0.5696
 -0.5131  -0.4667  -0.4331  -0.4068  -0.3095

                    Cartesian Multipole Moments
 -----------------------------------------------------------------
    Charge (ESU x 10^10)
                 0.0000
    Dipole Moment (Debye)
         X       0.6371      Y      -0.0873      Z      -1.4612
       Tot       1.5964
    Quadrupole Moments (Debye-Ang)
        XX     -24.8115     XY      -0.3547     YY     -19.6578
        XZ       4.0128     YZ       0.0855     ZZ     -23.4462

 Total job time:  15.57s(wall), 81.96s(cpu)
        *  Thank you very much for using Q-Chem.  Have a nice day.  *
