 Q-Chem 5.3 (devel), Q-Chem, Inc., Pleasanton, CA (2020)
 Q-Chem 5.3.0 for Intel X86 EM64T Linux

User input:
--------------------------------------------------------------
$rem
   JOBTYPE  sp
   EXCHANGE   omegaB97X-D
   BASIS   6-311+G(2df,2pd)
   UNRESTRICTED   False
   max_scf_cycles   250
   geom_opt_max_cycles   1500
   basis2 6-31G*
   scf_algorithm rca_diis
   SYM_IGNORE  TRUE
   print_input   true
   geom_opt_dmax   80
   pop_mulliken false
   XC_GRID 000075000302
$end

$molecule
0 1
C       -5.5554900263     0.5112193791     -0.2114447359
C       -4.4111523602     1.3326080631     -0.2988038250
H       -5.7823716932     -0.1414560688     -1.0445541449
H       -6.4012656751     0.8689679362     0.3603458845
H       -4.5740180837     -0.0676329583     0.6359450903
O       -3.4375053604     0.3457055649     0.9333224632
H       -3.4626685080     0.9339781904     -0.6302415776
H       -4.3393611521     2.2446788918     0.2804573108
H       -2.7168995384     -0.1649317413     0.5478636978
$end
--------------------------------------------------------------

             Standard Nuclear Orientation (Angstroms)
    I     Atom           X                Y                Z
 ----------------------------------------------------------------
    1      C      -5.5554900263     0.5112193791    -0.2114447359
    2      C      -4.4111523602     1.3326080631    -0.2988038250
    3      H      -5.7823716932    -0.1414560688    -1.0445541449
    4      H      -6.4012656751     0.8689679362     0.3603458845
    5      H      -4.5740180837    -0.0676329583     0.6359450903
    6      O      -3.4375053604     0.3457055649     0.9333224632
    7      H      -3.4626685080     0.9339781904    -0.6302415776
    8      H      -4.3393611521     2.2446788918     0.2804573108
    9      H      -2.7168995384    -0.1649317413     0.5478636978
 ----------------------------------------------------------------

    7    -154.8220960664      4.32E-05 Convergence criterion met
    8    -154.8988770288      3.00E-06 Convergence criterion met
 Total energy in the final basis set = -154.89887703

                    Orbital Energies (a.u.)
 --------------------------------------------------------------

 Alpha MOs
 -- Occupied --
-19.2362 -10.3450 -10.2622  -1.0971  -0.8750  -0.7018  -0.6050  -0.5776
 -0.5137  -0.4766  -0.4401  -0.3884  -0.3103

                    Cartesian Multipole Moments
 -----------------------------------------------------------------
    Charge (ESU x 10^10)
                 0.0000
    Dipole Moment (Debye)
         X       0.5932      Y       0.0092      Z      -1.3311
       Tot       1.4573
    Quadrupole Moments (Debye-Ang)
        XX     -24.3794     XY      -1.0152     YY     -19.1334
        XZ       3.4868     YZ       0.3249     ZZ     -23.8108

 Total job time:  14.91s(wall), 79.88s(cpu)
        *  Thank you very much for using Q-Chem.  Have a nice day.  *
