 Q-Chem 5.3 (devel), Q-Chem, Inc., Pleasanton, CA (2020)
 Q-Chem 5.3.0 for Intel X86 EM64T Linux

User input:
--------------------------------------------------------------
$rem
   JOBTYPE  sp
   EXCHANGE   omegaB97X-D
   BASIS   6-311+G(2df,2pd)
   UNRESTRICTED   False
   max_scf_cycles   250
   geom_opt_max_cycles   1500
   basis2 6-31G*
   scf_algorithm rca_diis
   SYM_IGNORE  TRUE
   print_input   true
   geom_opt_dmax   80
   pop_mulliken false
   XC_GRID 000075000302
$end

$molecule
0 1
C       -5.5551924881     0.5138930081     -0.2060109102
C       -4.4103297012     1.3351368022     -0.2876656989
H       -5.7925607495     -0.1195258103     -1.0509776121
H       -6.3938794435     0.8601098372     0.3830587716
H       -4.5654746003     -0.0854764391     0.6171789151
O       -3.4249413816     0.3191911778     0.9110688670
H       -3.4344215116     0.9134351892     -0.4829842395
H       -4.3942942362     2.3102270651     0.1829854251
H       -2.7096382852     -0.1838535731     0.5062366452
$end
--------------------------------------------------------------

             Standard Nuclear Orientation (Angstroms)
    I     Atom           X                Y                Z
 ----------------------------------------------------------------
    1      C      -5.5551924881     0.5138930081    -0.2060109102
    2      C      -4.4103297012     1.3351368022    -0.2876656989
    3      H      -5.7925607495    -0.1195258103    -1.0509776121
    4      H      -6.3938794435     0.8601098372     0.3830587716
    5      H      -4.5654746003    -0.0854764391     0.6171789151
    6      O      -3.4249413816     0.3191911778     0.9110688670
    7      H      -3.4344215116     0.9134351892    -0.4829842395
    8      H      -4.3942942362     2.3102270651     0.1829854251
    9      H      -2.7096382852    -0.1838535731     0.5062366452
 ----------------------------------------------------------------

    7    -154.8018731098      4.45E-05 Convergence criterion met
    8    -154.8795206997      3.41E-06 Convergence criterion met
 Total energy in the final basis set = -154.87952070

                    Orbital Energies (a.u.)
 --------------------------------------------------------------

 Alpha MOs
 -- Occupied --
-19.2427 -10.3395 -10.2612  -1.1091  -0.8739  -0.7021  -0.6116  -0.5774
 -0.5160  -0.4823  -0.4476  -0.3714  -0.3120

                    Cartesian Multipole Moments
 -----------------------------------------------------------------
    Charge (ESU x 10^10)
                 0.0000
    Dipole Moment (Debye)
         X       0.6343      Y      -0.0037      Z      -1.1963
       Tot       1.3540
    Quadrupole Moments (Debye-Ang)
        XX     -24.6936     XY      -1.0571     YY     -19.0569
        XZ       3.0910     YZ       0.3902     ZZ     -23.8918

 Total job time:  13.76s(wall), 72.89s(cpu)
        *  Thank you very much for using Q-Chem.  Have a nice day.  *
