 Q-Chem 5.3 (devel), Q-Chem, Inc., Pleasanton, CA (2020)
 Q-Chem 5.3.0 for Intel X86 EM64T Linux

User input:
--------------------------------------------------------------
$rem
   JOBTYPE  sp
   EXCHANGE   omegaB97X-D
   BASIS   6-311+G(2df,2pd)
   UNRESTRICTED   False
   max_scf_cycles   250
   geom_opt_max_cycles   1500
   basis2 6-31G*
   scf_algorithm rca_diis
   SYM_IGNORE  TRUE
   print_input   true
   geom_opt_dmax   80
   pop_mulliken false
   XC_GRID 000075000302
$end

$molecule
0 1
C       -5.5518115057     0.5212477777     -0.1873304327
C       -4.4049593931     1.3418593530     -0.2434245413
H       -5.8184059306     -0.0474177610     -1.0688511279
H       -6.3702279287     0.8264458554     0.4508808834
H       -4.5413776638     -0.1408246468     0.5590677693
O       -3.3900590156     0.2367483113     0.8468997318
H       -3.4244113624     0.9456964241     -0.0199097311
H       -4.4891149241     2.4173040101     -0.1490461881
H       -2.6903646733     -0.2379220667     0.3846037999
$end
--------------------------------------------------------------

             Standard Nuclear Orientation (Angstroms)
    I     Atom           X                Y                Z
 ----------------------------------------------------------------
    1      C      -5.5518115057     0.5212477777    -0.1873304327
    2      C      -4.4049593931     1.3418593530    -0.2434245413
    3      H      -5.8184059306    -0.0474177610    -1.0688511279
    4      H      -6.3702279287     0.8264458554     0.4508808834
    5      H      -4.5413776638    -0.1408246468     0.5590677693
    6      O      -3.3900590156     0.2367483113     0.8468997318
    7      H      -3.4244113624     0.9456964241    -0.0199097311
    8      H      -4.4891149241     2.4173040101    -0.1490461881
    9      H      -2.6903646733    -0.2379220667     0.3846037999
 ----------------------------------------------------------------

    7    -154.7080007428      4.90E-05 Convergence criterion met
    8    -154.7896253555      8.16E-06 Convergence criterion met
 Total energy in the final basis set = -154.78962536

                    Orbital Energies (a.u.)
 --------------------------------------------------------------

 Alpha MOs
 -- Occupied --
-19.2706 -10.3077 -10.2592  -1.1698  -0.8690  -0.7113  -0.6393  -0.5802
 -0.5365  -0.4933  -0.4656  -0.3222  -0.3043

                    Cartesian Multipole Moments
 -----------------------------------------------------------------
    Charge (ESU x 10^10)
                 0.0000
    Dipole Moment (Debye)
         X       0.9013      Y      -0.3439      Z      -0.6306
       Tot       1.1525
    Quadrupole Moments (Debye-Ang)
        XX     -26.8844     XY       0.4077     YY     -19.6978
        XZ       1.7071     YZ       0.5011     ZZ     -23.5754

 Total job time:  14.63s(wall), 77.35s(cpu)
        *  Thank you very much for using Q-Chem.  Have a nice day.  *
