 Q-Chem 5.3 (devel), Q-Chem, Inc., Pleasanton, CA (2020)
 Q-Chem 5.3.0 for Intel X86 EM64T Linux

User input:
--------------------------------------------------------------
$rem
   JOBTYPE  sp
   EXCHANGE   omegaB97X-D
   BASIS   6-311+G(2df,2pd)
   UNRESTRICTED   False
   max_scf_cycles   250
   geom_opt_max_cycles   1500
   basis2 6-31G*
   scf_algorithm rca_diis
   SYM_IGNORE  TRUE
   print_input   true
   geom_opt_dmax   80
   pop_mulliken false
   XC_GRID 000075000302
$end

$molecule
0 1
C       -5.4712207872     0.4001682544     -0.2765139325
C       -4.2403431536     1.0661049771     -0.4589644934
H       -5.5999792066     -0.5726066303     -0.7333094136
H       -6.3658242831     0.9977014810     -0.1629198293
H       -4.7668457977     0.2962647160     0.9520977429
O       -3.6742373251     0.7919856145     1.2858801923
H       -4.1786063098     2.1445260063     -0.4192779352
H       -3.4248829040     0.5867938223     -0.9860850069
H       -2.9587926302     0.1521990159     1.3719828391
$end
--------------------------------------------------------------

             Standard Nuclear Orientation (Angstroms)
    I     Atom           X                Y                Z
 ----------------------------------------------------------------
    1      C      -5.4712207872     0.4001682544    -0.2765139325
    2      C      -4.2403431536     1.0661049771    -0.4589644934
    3      H      -5.5999792066    -0.5726066303    -0.7333094136
    4      H      -6.3658242831     0.9977014810    -0.1629198293
    5      H      -4.7668457977     0.2962647160     0.9520977429
    6      O      -3.6742373251     0.7919856145     1.2858801923
    7      H      -4.1786063098     2.1445260063    -0.4192779352
    8      H      -3.4248829040     0.5867938223    -0.9860850069
    9      H      -2.9587926302     0.1521990159     1.3719828391
 ----------------------------------------------------------------

    7    -154.8621088149      4.09E-05 Convergence criterion met
    7    -154.9374700463      8.39E-06 Convergence criterion met
 Total energy in the final basis set = -154.93747005

                    Orbital Energies (a.u.)
 --------------------------------------------------------------

 Alpha MOs
 -- Occupied --
-19.2421 -10.3540 -10.2543  -1.0882  -0.8743  -0.6974  -0.6109  -0.5693
 -0.5062  -0.4574  -0.4397  -0.4277  -0.3050

                    Cartesian Multipole Moments
 -----------------------------------------------------------------
    Charge (ESU x 10^10)
                 0.0000
    Dipole Moment (Debye)
         X       1.0599      Y      -0.6081      Z      -1.3264
       Tot       1.8035
    Quadrupole Moments (Debye-Ang)
        XX     -28.4929     XY       1.2717     YY     -20.0418
        XZ       5.2141     YZ      -2.7005     ZZ     -23.3443

 Total job time:  14.11s(wall), 74.43s(cpu)
        *  Thank you very much for using Q-Chem.  Have a nice day.  *
