 Q-Chem 5.3 (devel), Q-Chem, Inc., Pleasanton, CA (2020)
 Q-Chem 5.3.0 for Intel X86 EM64T Linux

User input:
--------------------------------------------------------------
$rem
   JOBTYPE  sp
   EXCHANGE   omegaB97X-D
   BASIS   6-311+G(2df,2pd)
   UNRESTRICTED   False
   max_scf_cycles   250
   geom_opt_max_cycles   1500
   basis2 6-31G*
   scf_algorithm rca_diis
   SYM_IGNORE  TRUE
   print_input   true
   geom_opt_dmax   80
   pop_mulliken false
   XC_GRID 000075000302
$end

$molecule
0 1
C       -5.5427053053     0.5373090963     -0.0949341549
C       -4.4028856245     1.3633231404     0.0067101717
H       -5.8813822355     0.2509178221     -1.0822587182
H       -6.3057324399     0.6199569362     0.6674462740
H       -4.4757920981     -0.2937361539     0.3380632132
O       -3.3041721836     0.0071659353     0.6342184355
H       -4.0871067359     1.7629172362     0.9601180746
H       -4.0355706809     1.9075802125     -0.8543558008
H       -2.6453850936     -0.2922969680     -0.0021173318
$end
--------------------------------------------------------------

             Standard Nuclear Orientation (Angstroms)
    I     Atom           X                Y                Z
 ----------------------------------------------------------------
    1      C      -5.5427053053     0.5373090963    -0.0949341549
    2      C      -4.4028856245     1.3633231404     0.0067101717
    3      H      -5.8813822355     0.2509178221    -1.0822587182
    4      H      -6.3057324399     0.6199569362     0.6674462740
    5      H      -4.4757920981    -0.2937361539     0.3380632132
    6      O      -3.3041721836     0.0071659353     0.6342184355
    7      H      -4.0871067359     1.7629172362     0.9601180746
    8      H      -4.0355706809     1.9075802125    -0.8543558008
    9      H      -2.6453850936    -0.2922969680    -0.0021173318
 ----------------------------------------------------------------

    7    -154.8495167464      4.31E-05 Convergence criterion met
    7    -154.9249529915      8.33E-06 Convergence criterion met
 Total energy in the final basis set = -154.92495299

                    Orbital Energies (a.u.)
 --------------------------------------------------------------

 Alpha MOs
 -- Occupied --
-19.2437 -10.3512 -10.2540  -1.0908  -0.8738  -0.6972  -0.6193  -0.5584
 -0.5069  -0.4578  -0.4523  -0.4127  -0.3043

                    Cartesian Multipole Moments
 -----------------------------------------------------------------
    Charge (ESU x 10^10)
                 0.0000
    Dipole Moment (Debye)
         X       0.5403      Y       0.8368      Z      -1.4529
       Tot       1.7615
    Quadrupole Moments (Debye-Ang)
        XX     -25.1959     XY      -3.3957     YY     -19.1092
        XZ       3.6492     YZ       0.4669     ZZ     -20.9791

 Total job time:  14.70s(wall), 77.11s(cpu)
        *  Thank you very much for using Q-Chem.  Have a nice day.  *
