 Q-Chem 5.3 (devel), Q-Chem, Inc., Pleasanton, CA (2020)
 Q-Chem 5.3.0 for Intel X86 EM64T Linux

User input:
--------------------------------------------------------------
$rem
   JOBTYPE  sp
   EXCHANGE   omegaB97X-D
   BASIS   6-311+G(2df,2pd)
   UNRESTRICTED   False
   max_scf_cycles   250
   geom_opt_max_cycles   1500
   basis2 6-31G*
   scf_algorithm rca_diis
   SYM_IGNORE  TRUE
   print_input   true
   geom_opt_dmax   80
   pop_mulliken false
   XC_GRID 000075000302
$end

$molecule
0 1
C       -5.5306291013     0.5278589100     -0.0720299350
C       -4.2976166970     1.2118214106     -0.0112402706
H       -5.9614597846     0.3340900798     -1.0458730338
H       -6.2296663438     0.6571045111     0.7433886693
H       -4.5437558558     -0.4411217923     0.2498152389
O       -3.3287479746     -0.2919220990     0.4788097955
H       -4.0265528630     1.7965529866     0.8565107069
H       -3.7664094013     1.4761544414     -0.9170644783
H       -2.9958943758     0.5925988090     0.2905734703
$end
--------------------------------------------------------------

             Standard Nuclear Orientation (Angstroms)
    I     Atom           X                Y                Z
 ----------------------------------------------------------------
    1      C      -5.5306291013     0.5278589100    -0.0720299350
    2      C      -4.2976166970     1.2118214106    -0.0112402706
    3      H      -5.9614597846     0.3340900798    -1.0458730338
    4      H      -6.2296663438     0.6571045111     0.7433886693
    5      H      -4.5437558558    -0.4411217923     0.2498152389
    6      O      -3.3287479746    -0.2919220990     0.4788097955
    7      H      -4.0265528630     1.7965529866     0.8565107069
    8      H      -3.7664094013     1.4761544414    -0.9170644783
    9      H      -2.9958943758     0.5925988090     0.2905734703
 ----------------------------------------------------------------

    7    -154.7900016060      5.70E-05 Convergence criterion met
    8    -154.8731482580      4.95E-06 Convergence criterion met
 Total energy in the final basis set = -154.87314826

                    Orbital Energies (a.u.)
 --------------------------------------------------------------

 Alpha MOs
 -- Occupied --
-19.2207 -10.3863 -10.2670  -1.1029  -0.8829  -0.7404  -0.5987  -0.5950
 -0.5171  -0.4913  -0.4689  -0.3774  -0.3009

                    Cartesian Multipole Moments
 -----------------------------------------------------------------
    Charge (ESU x 10^10)
                -0.0000
    Dipole Moment (Debye)
         X      -0.4761      Y       2.7712      Z      -0.7827
       Tot       2.9187
    Quadrupole Moments (Debye-Ang)
        XX     -18.2236     XY      -8.2989     YY     -18.6717
        XZ       1.9299     YZ       0.9227     ZZ     -20.4245

 Total job time:  14.95s(wall), 78.97s(cpu)
        *  Thank you very much for using Q-Chem.  Have a nice day.  *
