 Q-Chem 5.3 (devel), Q-Chem, Inc., Pleasanton, CA (2020)
 Q-Chem 5.3.0 for Intel X86 EM64T Linux

User input:
--------------------------------------------------------------
$rem
   JOBTYPE  sp
   EXCHANGE   omegaB97X-D
   BASIS   6-311+G(2df,2pd)
   UNRESTRICTED   False
   max_scf_cycles   250
   geom_opt_max_cycles   1500
   basis2 6-31G*
   scf_algorithm rca_diis
   SYM_IGNORE  TRUE
   print_input   true
   geom_opt_dmax   80
   pop_mulliken false
   XC_GRID 000075000302
$end

$molecule
0 1
C       -5.5320998306     0.4799743206     -0.2458218131
C       -4.3724378183     1.2767073964     -0.3563663641
H       -5.6737616848     -0.3203964319     -0.9605737953
H       -6.4312624142     0.9346969471     0.1478772764
H       -4.6617403366     0.0785135643     0.8019044549
O       -3.5596828342     0.5476490786     1.1429679937
H       -4.0283804046     1.6301461576     -1.3181791917
H       -3.6130620870     1.2583911649     0.4153742994
H       -2.8083049869     -0.0225449405     0.9457073031
$end
--------------------------------------------------------------

             Standard Nuclear Orientation (Angstroms)
    I     Atom           X                Y                Z
 ----------------------------------------------------------------
    1      C      -5.5320998306     0.4799743206    -0.2458218131
    2      C      -4.3724378183     1.2767073964    -0.3563663641
    3      H      -5.6737616848    -0.3203964319    -0.9605737953
    4      H      -6.4312624142     0.9346969471     0.1478772764
    5      H      -4.6617403366     0.0785135643     0.8019044549
    6      O      -3.5596828342     0.5476490786     1.1429679937
    7      H      -4.0283804046     1.6301461576    -1.3181791917
    8      H      -3.6130620870     1.2583911649     0.4153742994
    9      H      -2.8083049869    -0.0225449405     0.9457073031
 ----------------------------------------------------------------

    7    -154.6638239318      3.80E-05 Convergence criterion met
   10    -154.7473816074      2.30E-06 Convergence criterion met
 Total energy in the final basis set = -154.74738161

                    Orbital Energies (a.u.)
 --------------------------------------------------------------

 Alpha MOs
 -- Occupied --
-19.2803 -10.2920 -10.2578  -1.1875  -0.8677  -0.7276  -0.6527  -0.5822
 -0.5251  -0.5035  -0.4694  -0.3235  -0.2768

                    Cartesian Multipole Moments
 -----------------------------------------------------------------
    Charge (ESU x 10^10)
                -0.0000
    Dipole Moment (Debye)
         X       1.4812      Y      -1.1727      Z      -0.6167
       Tot       1.9874
    Quadrupole Moments (Debye-Ang)
        XX     -31.0546     XY       4.2011     YY     -22.9091
        XZ       2.4220     YZ      -1.6697     ZZ     -22.8402

 Total job time:  15.35s(wall), 82.74s(cpu)
        *  Thank you very much for using Q-Chem.  Have a nice day.  *
