 Q-Chem 5.3 (devel), Q-Chem, Inc., Pleasanton, CA (2020)
 Q-Chem 5.3.0 for Intel X86 EM64T Linux

User input:
--------------------------------------------------------------
$rem
   JOBTYPE  sp
   EXCHANGE   omegaB97X-D
   BASIS   6-311+G(2df,2pd)
   UNRESTRICTED   False
   max_scf_cycles   250
   geom_opt_max_cycles   1500
   basis2 6-31G*
   scf_algorithm rca_diis
   SYM_IGNORE  TRUE
   print_input   true
   geom_opt_dmax   80
   pop_mulliken false
   XC_GRID 000075000302
$end

$molecule
0 1
C       -5.5418768998     0.5360138129     -0.1059681304
C       -4.4002178349     1.3615148427     -0.0224079493
H       -5.8740123259     0.2187914593     -1.0860639704
H       -6.3103641407     0.6455696035     0.6474838464
H       -4.4809258298     -0.2837181722     0.3618448876
O       -3.3106157416     0.0231558264     0.6570496528
H       -3.9969159333     1.6600943909     0.9349719161
H       -4.1177938591     2.0004246062     -0.8498145299
H       -2.6480098323     -0.2987091126     0.0357944404
$end
--------------------------------------------------------------

             Standard Nuclear Orientation (Angstroms)
    I     Atom           X                Y                Z
 ----------------------------------------------------------------
    1      C      -5.5418768998     0.5360138129    -0.1059681304
    2      C      -4.4002178349     1.3615148427    -0.0224079493
    3      H      -5.8740123259     0.2187914593    -1.0860639704
    4      H      -6.3103641407     0.6455696035     0.6474838464
    5      H      -4.4809258298    -0.2837181722     0.3618448876
    6      O      -3.3106157416     0.0231558264     0.6570496528
    7      H      -3.9969159333     1.6600943909     0.9349719161
    8      H      -4.1177938591     2.0004246062    -0.8498145299
    9      H      -2.6480098323    -0.2987091126     0.0357944404
 ----------------------------------------------------------------

    7    -154.8332196703      4.52E-05 Convergence criterion met
    8    -154.9089041819      3.62E-06 Convergence criterion met
 Total energy in the final basis set = -154.90890418

                    Orbital Energies (a.u.)
 --------------------------------------------------------------

 Alpha MOs
 -- Occupied --
-19.2454 -10.3485 -10.2538  -1.0945  -0.8733  -0.6976  -0.6251  -0.5530
 -0.5073  -0.4665  -0.4536  -0.3992  -0.3040

                    Cartesian Multipole Moments
 -----------------------------------------------------------------
    Charge (ESU x 10^10)
                 0.0000
    Dipole Moment (Debye)
         X       0.5779      Y       0.7603      Z      -1.4424
       Tot       1.7299
    Quadrupole Moments (Debye-Ang)
        XX     -25.4183     XY      -3.2088     YY     -19.1382
        XZ       3.8064     YZ       0.2536     ZZ     -21.1805

 Total job time:  15.66s(wall), 82.78s(cpu)
        *  Thank you very much for using Q-Chem.  Have a nice day.  *
