 Q-Chem 5.3 (devel), Q-Chem, Inc., Pleasanton, CA (2020)
 Q-Chem 5.3.0 for Intel X86 EM64T Linux

User input:
--------------------------------------------------------------
$rem
   JOBTYPE  sp
   EXCHANGE   omegaB97X-D
   BASIS   6-311+G(2df,2pd)
   UNRESTRICTED   False
   max_scf_cycles   250
   geom_opt_max_cycles   1500
   basis2 6-31G*
   scf_algorithm rca_diis
   SYM_IGNORE  TRUE
   print_input   true
   geom_opt_dmax   80
   pop_mulliken false
   XC_GRID 000075000302
$end

$molecule
0 1
C       -5.5343254903     0.5293755841     -0.0722151618
C       -4.3210135849     1.2423698823     0.0342415224
H       -5.9190361680     0.3177953288     -1.0615398347
H       -6.2699951352     0.6488330783     0.7118671505
H       -4.5399558858     -0.4137125783     0.2995919493
O       -3.3394618151     -0.2343868255     0.5781587593
H       -4.1003752110     1.8402161207     0.9073262607
H       -3.7581932618     1.5117314775     -0.8507716145
H       -2.8983758453     0.4209151894     0.0262311322
$end
--------------------------------------------------------------

             Standard Nuclear Orientation (Angstroms)
    I     Atom           X                Y                Z
 ----------------------------------------------------------------
    1      C      -5.5343254903     0.5293755841    -0.0722151618
    2      C      -4.3210135849     1.2423698823     0.0342415224
    3      H      -5.9190361680     0.3177953288    -1.0615398347
    4      H      -6.2699951352     0.6488330783     0.7118671505
    5      H      -4.5399558858    -0.4137125783     0.2995919493
    6      O      -3.3394618151    -0.2343868255     0.5781587593
    7      H      -4.1003752110     1.8402161207     0.9073262607
    8      H      -3.7581932618     1.5117314775    -0.8507716145
    9      H      -2.8983758453     0.4209151894     0.0262311322
 ----------------------------------------------------------------

    7    -154.8136841485      5.82E-05 Convergence criterion met
    8    -154.8937094470      3.43E-06 Convergence criterion met
 Total energy in the final basis set = -154.89370945

                    Orbital Energies (a.u.)
 --------------------------------------------------------------

 Alpha MOs
 -- Occupied --
-19.2307 -10.3767 -10.2626  -1.1003  -0.8797  -0.7260  -0.6067  -0.5840
 -0.5129  -0.4863  -0.4631  -0.3930  -0.3016

                    Cartesian Multipole Moments
 -----------------------------------------------------------------
    Charge (ESU x 10^10)
                -0.0000
    Dipole Moment (Debye)
         X      -0.1253      Y       2.3593      Z      -1.2301
       Tot       2.6637
    Quadrupole Moments (Debye-Ang)
        XX     -20.6670     XY      -7.1402     YY     -19.1335
        XZ       2.8077     YZ       0.6937     ZZ     -20.7136

 Total job time:  14.33s(wall), 75.95s(cpu)
        *  Thank you very much for using Q-Chem.  Have a nice day.  *
