 Q-Chem 5.3 (devel), Q-Chem, Inc., Pleasanton, CA (2020)
 Q-Chem 5.3.0 for Intel X86 EM64T Linux

User input:
--------------------------------------------------------------
$rem
   JOBTYPE  sp
   EXCHANGE   omegaB97X-D
   BASIS   6-311+G(2df,2pd)
   UNRESTRICTED   False
   max_scf_cycles   250
   geom_opt_max_cycles   1500
   basis2 6-31G*
   scf_algorithm rca_diis
   SYM_IGNORE  TRUE
   print_input   true
   geom_opt_dmax   80
   pop_mulliken false
   XC_GRID 000075000302
$end

$molecule
0 1
C       -5.5482873831     0.5542996312     -0.0868635925
C       -4.4108908932     1.3826525409     -0.1963184070
H       -5.9448646278     0.1068577712     -0.9891130532
H       -6.2635423811     0.7659642772     0.6966371142
H       -4.4502435050     -0.1948994502     0.4125631774
O       -3.2650076139     0.1484434355     0.5807141572
H       -4.2209732793     2.1668849450     0.5229097998
H       -3.9107291676     1.5126414541     -1.1479022279
H       -2.6661935463     -0.5797073476     0.7802631952
$end
--------------------------------------------------------------

             Standard Nuclear Orientation (Angstroms)
    I     Atom           X                Y                Z
 ----------------------------------------------------------------
    1      C      -5.5482873831     0.5542996312    -0.0868635925
    2      C      -4.4108908932     1.3826525409    -0.1963184070
    3      H      -5.9448646278     0.1068577712    -0.9891130532
    4      H      -6.2635423811     0.7659642772     0.6966371142
    5      H      -4.4502435050    -0.1948994502     0.4125631774
    6      O      -3.2650076139     0.1484434355     0.5807141572
    7      H      -4.2209732793     2.1668849450     0.5229097998
    8      H      -3.9107291676     1.5126414541    -1.1479022279
    9      H      -2.6661935463    -0.5797073476     0.7802631952
 ----------------------------------------------------------------

    7    -154.8419556627      4.25E-05 Convergence criterion met
    8    -154.9217237548      3.04E-06 Convergence criterion met
 Total energy in the final basis set = -154.92172375

                    Orbital Energies (a.u.)
 --------------------------------------------------------------

 Alpha MOs
 -- Occupied --
-19.2165 -10.3553 -10.2628  -1.0658  -0.8780  -0.7004  -0.6052  -0.5703
 -0.5106  -0.4538  -0.4372  -0.3762  -0.3174

                    Cartesian Multipole Moments
 -----------------------------------------------------------------
    Charge (ESU x 10^10)
                 0.0000
    Dipole Moment (Debye)
         X      -0.1057      Y       0.1709      Z      -0.5592
       Tot       0.5942
    Quadrupole Moments (Debye-Ang)
        XX     -19.8740     XY      -1.8030     YY     -17.7665
        XZ       1.8645     YZ      -0.7355     ZZ     -20.3772

 Total job time:  12.60s(wall), 66.16s(cpu)
        *  Thank you very much for using Q-Chem.  Have a nice day.  *
