 Q-Chem 5.3 (devel), Q-Chem, Inc., Pleasanton, CA (2020)
 Q-Chem 5.3.0 for Intel X86 EM64T Linux

User input:
--------------------------------------------------------------
$rem
   JOBTYPE  sp
   EXCHANGE   omegaB97X-D
   BASIS   6-311+G(2df,2pd)
   UNRESTRICTED   False
   max_scf_cycles   250
   geom_opt_max_cycles   1500
   basis2 6-31G*
   scf_algorithm rca_diis
   SYM_IGNORE  TRUE
   print_input   true
   geom_opt_dmax   80
   pop_mulliken false
   XC_GRID 000075000302
$end

$molecule
0 1
C       -5.5440799003     0.5386182650     -0.0838109910
C       -4.4062804193     1.3649872216     0.0359653143
H       -5.8893551808     0.2831672031     -1.0773207062
H       -6.3015135409     0.5937733306     0.6865896780
H       -4.4711092908     -0.3021926003     0.3139299803
O       -3.2982657653     -0.0068470293     0.6108344523
H       -4.1751129393     1.8640799006     0.9664740306
H       -3.9516371358     1.8107123194     -0.8399338006
H       -2.6433782248     -0.2831613535     -0.0398377944
$end
--------------------------------------------------------------

             Standard Nuclear Orientation (Angstroms)
    I     Atom           X                Y                Z
 ----------------------------------------------------------------
    1      C      -5.5440799003     0.5386182650    -0.0838109910
    2      C      -4.4062804193     1.3649872216     0.0359653143
    3      H      -5.8893551808     0.2831672031    -1.0773207062
    4      H      -6.3015135409     0.5937733306     0.6865896780
    5      H      -4.4711092908    -0.3021926003     0.3139299803
    6      O      -3.2982657653    -0.0068470293     0.6108344523
    7      H      -4.1751129393     1.8640799006     0.9664740306
    8      H      -3.9516371358     1.8107123194    -0.8399338006
    9      H      -2.6433782248    -0.2831613535    -0.0398377944
 ----------------------------------------------------------------

    7    -154.8590142146      4.17E-05 Convergence criterion met
    7    -154.9343586347      7.44E-06 Convergence criterion met
 Total energy in the final basis set = -154.93435863

                    Orbital Energies (a.u.)
 --------------------------------------------------------------

 Alpha MOs
 -- Occupied --
-19.2428 -10.3529 -10.2541  -1.0889  -0.8741  -0.6972  -0.6145  -0.5642
 -0.5064  -0.4554  -0.4462  -0.4231  -0.3047

                    Cartesian Multipole Moments
 -----------------------------------------------------------------
    Charge (ESU x 10^10)
                 0.0000
    Dipole Moment (Debye)
         X       0.5106      Y       0.9008      Z      -1.4537
       Tot       1.7848
    Quadrupole Moments (Debye-Ang)
        XX     -24.9859     XY      -3.5677     YY     -19.0931
        XZ       3.4573     YZ       0.6904     ZZ     -20.8574

 Total job time:  14.65s(wall), 77.11s(cpu)
        *  Thank you very much for using Q-Chem.  Have a nice day.  *
