 Q-Chem 5.3 (devel), Q-Chem, Inc., Pleasanton, CA (2020)
 Q-Chem 5.3.0 for Intel X86 EM64T Linux

User input:
--------------------------------------------------------------
$rem
   JOBTYPE  sp
   EXCHANGE   omegaB97X-D
   BASIS   6-311+G(2df,2pd)
   UNRESTRICTED   False
   max_scf_cycles   250
   geom_opt_max_cycles   1500
   basis2 6-31G*
   scf_algorithm rca_diis
   SYM_IGNORE  TRUE
   print_input   true
   geom_opt_dmax   80
   pop_mulliken false
   XC_GRID 000075000302
$end

$molecule
0 1
C       -5.5417082240     0.5478908869     -0.0853075784
C       -4.3898482114     1.3538947601     -0.2093879647
H       -6.0303596374     0.2099850628     -0.9900568634
H       -6.1785489694     0.6925643676     0.7771125286
H       -4.4313479444     -0.2783009379     0.2323932843
O       -3.2247363550     0.0146743199     0.3282952002
H       -4.1110529219     2.0514303835     0.5678479183
H       -3.9697960609     1.5722989741     -1.1832598390
H       -2.8033340730     -0.3013005601     1.1352534773
$end
--------------------------------------------------------------

             Standard Nuclear Orientation (Angstroms)
    I     Atom           X                Y                Z
 ----------------------------------------------------------------
    1      C      -5.5417082240     0.5478908869    -0.0853075784
    2      C      -4.3898482114     1.3538947601    -0.2093879647
    3      H      -6.0303596374     0.2099850628    -0.9900568634
    4      H      -6.1785489694     0.6925643676     0.7771125286
    5      H      -4.4313479444    -0.2783009379     0.2323932843
    6      O      -3.2247363550     0.0146743199     0.3282952002
    7      H      -4.1110529219     2.0514303835     0.5678479183
    8      H      -3.9697960609     1.5722989741    -1.1832598390
    9      H      -2.8033340730    -0.3013005601     1.1352534773
 ----------------------------------------------------------------

    7    -154.8530491623      3.83E-05 Convergence criterion met
    7    -154.9302893374      6.48E-06 Convergence criterion met
 Total energy in the final basis set = -154.93028934

                    Orbital Energies (a.u.)
 --------------------------------------------------------------

 Alpha MOs
 -- Occupied --
-19.2293 -10.3543 -10.2581  -1.0768  -0.8763  -0.6985  -0.6078  -0.5696
 -0.5095  -0.4524  -0.4413  -0.4022  -0.3092

                    Cartesian Multipole Moments
 -----------------------------------------------------------------
    Charge (ESU x 10^10)
                 0.0000
    Dipole Moment (Debye)
         X      -0.1613      Y       0.9226      Z       0.8018
       Tot       1.2329
    Quadrupole Moments (Debye-Ang)
        XX     -20.7749     XY      -3.3886     YY     -18.9752
        XZ      -1.8207     YZ      -0.7467     ZZ     -17.6204

 Total job time:  13.60s(wall), 70.72s(cpu)
        *  Thank you very much for using Q-Chem.  Have a nice day.  *
