 Q-Chem 5.3 (devel), Q-Chem, Inc., Pleasanton, CA (2020)
 Q-Chem 5.3.0 for Intel X86 EM64T Linux

User input:
--------------------------------------------------------------
$rem
   JOBTYPE  sp
   EXCHANGE   omegaB97X-D
   BASIS   6-311+G(2df,2pd)
   UNRESTRICTED   False
   max_scf_cycles   250
   geom_opt_max_cycles   1500
   basis2 6-31G*
   scf_algorithm rca_diis
   SYM_IGNORE  TRUE
   print_input   true
   geom_opt_dmax   80
   pop_mulliken false
   XC_GRID 000075000302
$end

$molecule
0 1
C       -5.5446807370     0.5513263606     -0.0866827821
C       -4.4035676028     1.3723900030     -0.2113222007
H       -6.0051639398     0.1736057218     -0.9904604967
H       -6.2049553032     0.7149373663     0.7544675778
H       -4.4290286027     -0.2438623372     0.2867097330
O       -3.2301587029     0.0731934219     0.4012951422
H       -4.1556314204     2.1013707977     0.5472903668
H       -3.9632235757     1.5639247511     -1.1818798835
H       -2.7443225128     -0.4437488282     1.0534727065
$end
--------------------------------------------------------------

             Standard Nuclear Orientation (Angstroms)
    I     Atom           X                Y                Z
 ----------------------------------------------------------------
    1      C      -5.5446807370     0.5513263606    -0.0866827821
    2      C      -4.4035676028     1.3723900030    -0.2113222007
    3      H      -6.0051639398     0.1736057218    -0.9904604967
    4      H      -6.2049553032     0.7149373663     0.7544675778
    5      H      -4.4290286027    -0.2438623372     0.2867097330
    6      O      -3.2301587029     0.0731934219     0.4012951422
    7      H      -4.1556314204     2.1013707977     0.5472903668
    8      H      -3.9632235757     1.5639247511    -1.1818798835
    9      H      -2.7443225128    -0.4437488282     1.0534727065
 ----------------------------------------------------------------

    7    -154.8445823809      4.03E-05 Convergence criterion met
    7    -154.9236110295      9.23E-06 Convergence criterion met
 Total energy in the final basis set = -154.92361103

                    Orbital Energies (a.u.)
 --------------------------------------------------------------

 Alpha MOs
 -- Occupied --
-19.2197 -10.3551 -10.2617  -1.0687  -0.8776  -0.7000  -0.6057  -0.5703
 -0.5107  -0.4532  -0.4389  -0.3833  -0.3143

                    Cartesian Multipole Moments
 -----------------------------------------------------------------
    Charge (ESU x 10^10)
                -0.0000
    Dipole Moment (Debye)
         X      -0.2653      Y       0.6047      Z       0.4474
       Tot       0.7977
    Quadrupole Moments (Debye-Ang)
        XX     -19.4107     XY      -2.7004     YY     -18.4337
        XZ      -0.8206     YZ      -0.9897     ZZ     -18.3385

 Total job time:  13.38s(wall), 69.71s(cpu)
        *  Thank you very much for using Q-Chem.  Have a nice day.  *
