 Q-Chem 5.3 (devel), Q-Chem, Inc., Pleasanton, CA (2020)
 Q-Chem 5.3.0 for Intel X86 EM64T Linux

User input:
--------------------------------------------------------------
$rem
   JOBTYPE  sp
   EXCHANGE   omegaB97X-D
   BASIS   6-311+G(2df,2pd)
   UNRESTRICTED   False
   max_scf_cycles   250
   geom_opt_max_cycles   1500
   basis2 6-31G*
   scf_algorithm rca_diis
   SYM_IGNORE  TRUE
   print_input   true
   geom_opt_dmax   80
   pop_mulliken false
   XC_GRID 000075000302
$end

$molecule
0 1
C       -5.5530428618     0.5025077025     -0.2255562576
C       -4.4085151046     1.3224206520     -0.3236309372
H       -5.7479069518     -0.2026366254     -1.0232600131
H       -6.4198920817     0.8914625051     0.2916976293
H       -4.6012787692     -0.0167389784     0.6914795742
O       -3.4773745030     0.4202208087     1.0026845736
H       -3.6089422776     1.0838427239     -1.0107570128
H       -4.1218453509     1.9722207987     0.4937740171
H       -2.7419344968     -0.1101623299     0.6764585897
$end
--------------------------------------------------------------

             Standard Nuclear Orientation (Angstroms)
    I     Atom           X                Y                Z
 ----------------------------------------------------------------
    1      C      -5.5530428618     0.5025077025    -0.2255562576
    2      C      -4.4085151046     1.3224206520    -0.3236309372
    3      H      -5.7479069518    -0.2026366254    -1.0232600131
    4      H      -6.4198920817     0.8914625051     0.2916976293
    5      H      -4.6012787692    -0.0167389784     0.6914795742
    6      O      -3.4773745030     0.4202208087     1.0026845736
    7      H      -3.6089422776     1.0838427239    -1.0107570128
    8      H      -4.1218453509     1.9722207987     0.4937740171
    9      H      -2.7419344968    -0.1101623299     0.6764585897
 ----------------------------------------------------------------

    7    -154.8354343208      4.20E-05 Convergence criterion met
    8    -154.9113984620      3.69E-06 Convergence criterion met
 Total energy in the final basis set = -154.91139846

                    Orbital Energies (a.u.)
 --------------------------------------------------------------

 Alpha MOs
 -- Occupied --
-19.2333 -10.3455 -10.2622  -1.0903  -0.8753  -0.7020  -0.6133  -0.5631
 -0.5140  -0.4640  -0.4401  -0.4012  -0.3099

                    Cartesian Multipole Moments
 -----------------------------------------------------------------
    Charge (ESU x 10^10)
                 0.0000
    Dipole Moment (Debye)
         X       0.7170      Y      -0.1745      Z      -1.4620
       Tot       1.6376
    Quadrupole Moments (Debye-Ang)
        XX     -25.5083     XY       0.1381     YY     -20.0463
        XZ       4.1556     YZ      -0.1032     ZZ     -23.2134

 Total job time:  15.78s(wall), 83.54s(cpu)
        *  Thank you very much for using Q-Chem.  Have a nice day.  *
