 Q-Chem 5.3 (devel), Q-Chem, Inc., Pleasanton, CA (2020)
 Q-Chem 5.3.0 for Intel X86 EM64T Linux

User input:
--------------------------------------------------------------
$rem
   JOBTYPE  sp
   EXCHANGE   omegaB97X-D
   BASIS   6-311+G(2df,2pd)
   UNRESTRICTED   False
   max_scf_cycles   250
   geom_opt_max_cycles   1500
   basis2 6-31G*
   scf_algorithm rca_diis
   SYM_IGNORE  TRUE
   print_input   true
   geom_opt_dmax   80
   pop_mulliken false
   XC_GRID 000075000302
$end

$molecule
0 1
C       -5.5351594526     0.5392483664     -0.0804546244
C       -4.3498429121     1.2984503380     -0.1827128264
H       -6.0573876398     0.2795260655     -0.9922407097
H       -6.1468212528     0.6597238048     0.8036384153
H       -4.4581568941     -0.3540882570     0.1612929435
O       -3.2375189378     -0.1223153916     0.2465427257
H       -4.0230834184     1.9340177082     0.6282500140
H       -3.9400846688     1.5565923861     -1.1512330907
H       -2.9326772209     0.0719822366     1.1398073160
$end
--------------------------------------------------------------

             Standard Nuclear Orientation (Angstroms)
    I     Atom           X                Y                Z
 ----------------------------------------------------------------
    1      C      -5.5351594526     0.5392483664    -0.0804546244
    2      C      -4.3498429121     1.2984503380    -0.1827128264
    3      H      -6.0573876398     0.2795260655    -0.9922407097
    4      H      -6.1468212528     0.6597238048     0.8036384153
    5      H      -4.4581568941    -0.3540882570     0.1612929435
    6      O      -3.2375189378    -0.1223153916     0.2465427257
    7      H      -4.0230834184     1.9340177082     0.6282500140
    8      H      -3.9400846688     1.5565923861    -1.1512330907
    9      H      -2.9326772209     0.0719822366     1.1398073160
 ----------------------------------------------------------------

    7    -154.8605808763      4.33E-05 Convergence criterion met
    7    -154.9356499304      7.47E-06 Convergence criterion met
 Total energy in the final basis set = -154.93564993

                    Orbital Energies (a.u.)
 --------------------------------------------------------------

 Alpha MOs
 -- Occupied --
-19.2440 -10.3555 -10.2548  -1.0914  -0.8742  -0.6989  -0.6113  -0.5707
 -0.5079  -0.4604  -0.4429  -0.4291  -0.3036

                    Cartesian Multipole Moments
 -----------------------------------------------------------------
    Charge (ESU x 10^10)
                -0.0000
    Dipole Moment (Debye)
         X      -0.0320      Y       1.6228      Z       0.9590
       Tot       1.8853
    Quadrupole Moments (Debye-Ang)
        XX     -22.4934     XY      -5.0222     YY     -19.6913
        XZ      -2.3747     YZ       0.2918     ZZ     -17.3524

 Total job time:  13.89s(wall), 73.98s(cpu)
        *  Thank you very much for using Q-Chem.  Have a nice day.  *
