 Q-Chem 5.3 (devel), Q-Chem, Inc., Pleasanton, CA (2020)
 Q-Chem 5.3.0 for Intel X86 EM64T Linux

User input:
--------------------------------------------------------------
$rem
   JOBTYPE  sp
   EXCHANGE   omegaB97X-D
   BASIS   6-311+G(2df,2pd)
   UNRESTRICTED   False
   max_scf_cycles   250
   geom_opt_max_cycles   1500
   basis2 6-31G*
   scf_algorithm rca_diis
   SYM_IGNORE  TRUE
   print_input   true
   geom_opt_dmax   80
   pop_mulliken false
   XC_GRID 000075000302
$end

$molecule
0 1
C       -5.5544282335     0.5164615269     -0.2001902032
C       -4.4089064030     1.3374572441     -0.2747920983
H       -5.8019735341     -0.0965913331     -1.0571728946
H       -6.3861467231     0.8502029061     0.4057190622
H       -4.5571974993     -0.1036948909     0.5981603466
O       -3.4128287627     0.2920510528     0.8892763882
H       -3.4182369777     0.9086408397     -0.3301902777
H       -4.4381776621     2.3611915720     0.0768922155
H       -2.7028366018     -0.2025816605     0.4651876246
$end
--------------------------------------------------------------

             Standard Nuclear Orientation (Angstroms)
    I     Atom           X                Y                Z
 ----------------------------------------------------------------
    1      C      -5.5544282335     0.5164615269    -0.2001902032
    2      C      -4.4089064030     1.3374572441    -0.2747920983
    3      H      -5.8019735341    -0.0965913331    -1.0571728946
    4      H      -6.3861467231     0.8502029061     0.4057190622
    5      H      -4.5571974993    -0.1036948909     0.5981603466
    6      O      -3.4128287627     0.2920510528     0.8892763882
    7      H      -3.4182369777     0.9086408397    -0.3301902777
    8      H      -4.4381776621     2.3611915720     0.0768922155
    9      H      -2.7028366018    -0.2025816605     0.4651876246
 ----------------------------------------------------------------

    7    -154.7750329375      4.77E-05 Convergence criterion met
    8    -154.8539115556      7.42E-06 Convergence criterion met
 Total energy in the final basis set = -154.85391156

                    Orbital Energies (a.u.)
 --------------------------------------------------------------

 Alpha MOs
 -- Occupied --
-19.2518 -10.3309 -10.2600  -1.1266  -0.8722  -0.7030  -0.6209  -0.5771
 -0.5209  -0.4872  -0.4553  -0.3511  -0.3147

                    Cartesian Multipole Moments
 -----------------------------------------------------------------
    Charge (ESU x 10^10)
                 0.0000
    Dipole Moment (Debye)
         X       0.7151      Y      -0.0759      Z      -1.0152
       Tot       1.2441
    Quadrupole Moments (Debye-Ang)
        XX     -25.3413     XY      -0.8057     YY     -19.1387
        XZ       2.6053     YZ       0.4338     ZZ     -23.8806

 Total job time:  13.57s(wall), 72.07s(cpu)
        *  Thank you very much for using Q-Chem.  Have a nice day.  *
