 Q-Chem 5.3 (devel), Q-Chem, Inc., Pleasanton, CA (2020)
 Q-Chem 5.3.0 for Intel X86 EM64T Linux

User input:
--------------------------------------------------------------
$rem
   JOBTYPE  sp
   EXCHANGE   omegaB97X-D
   BASIS   6-311+G(2df,2pd)
   UNRESTRICTED   False
   max_scf_cycles   250
   geom_opt_max_cycles   1500
   basis2 6-31G*
   scf_algorithm rca_diis
   SYM_IGNORE  TRUE
   print_input   true
   geom_opt_dmax   80
   pop_mulliken false
   XC_GRID 000075000302
$end

$molecule
0 1
C       -5.5418068109     0.5334092985     -0.1272895764
C       -4.3970926891     1.3575176802     -0.0793872888
H       -5.8608935052     0.1553382199     -1.0899825490
H       -6.3209198220     0.6945484094     0.6057057133
H       -4.4924403314     -0.2592524312     0.4083820528
O       -3.3250562567     0.0607782381     0.7011925714
H       -3.8188414880     1.4563984888     0.8284819261
H       -4.2687392976     2.1676661291     -0.7863211860
H       -2.6549421965     -0.3032667756     0.1121084998
$end
--------------------------------------------------------------

             Standard Nuclear Orientation (Angstroms)
    I     Atom           X                Y                Z
 ----------------------------------------------------------------
    1      C      -5.5418068109     0.5334092985    -0.1272895764
    2      C      -4.3970926891     1.3575176802    -0.0793872888
    3      H      -5.8608935052     0.1553382199    -1.0899825490
    4      H      -6.3209198220     0.6945484094     0.6057057133
    5      H      -4.4924403314    -0.2592524312     0.4083820528
    6      O      -3.3250562567     0.0607782381     0.7011925714
    7      H      -3.8188414880     1.4563984888     0.8284819261
    8      H      -4.2687392976     2.1676661291    -0.7863211860
    9      H      -2.6549421965    -0.3032667756     0.1121084998
 ----------------------------------------------------------------

    7    -154.7780601625      5.82E-05 Convergence criterion met
    8    -154.8553904121      3.80E-06 Convergence criterion met
 Total energy in the final basis set = -154.85539041

                    Orbital Energies (a.u.)
 --------------------------------------------------------------

 Alpha MOs
 -- Occupied --
-19.2526 -10.3369 -10.2537  -1.1098  -0.8711  -0.7005  -0.6381  -0.5493
 -0.5055  -0.4869  -0.4574  -0.3611  -0.3033

                    Cartesian Multipole Moments
 -----------------------------------------------------------------
    Charge (ESU x 10^10)
                -0.0000
    Dipole Moment (Debye)
         X       0.7347      Y       0.5115      Z      -1.3534
       Tot       1.6227
    Quadrupole Moments (Debye-Ang)
        XX     -26.3667     XY      -2.5074     YY     -19.3442
        XZ       3.7962     YZ      -0.0475     ZZ     -21.8136

 Total job time:  13.54s(wall), 71.90s(cpu)
        *  Thank you very much for using Q-Chem.  Have a nice day.  *
