 Q-Chem 5.3 (devel), Q-Chem, Inc., Pleasanton, CA (2020)
 Q-Chem 5.3.0 for Intel X86 EM64T Linux

User input:
--------------------------------------------------------------
$rem
   JOBTYPE  sp
   EXCHANGE   omegaB97X-D
   BASIS   6-311+G(2df,2pd)
   UNRESTRICTED   False
   max_scf_cycles   250
   geom_opt_max_cycles   1500
   basis2 6-31G*
   scf_algorithm rca_diis
   SYM_IGNORE  TRUE
   print_input   true
   geom_opt_dmax   80
   pop_mulliken false
   XC_GRID 000075000302
$end

$molecule
0 1
C       -5.5424926824     0.5320471481     -0.1373776087
C       -4.3966148852     1.3553634643     -0.1068163284
H       -5.8549675890     0.1242121530     -1.0900380246
H       -6.3268488835     0.7176037344     0.5841617838
H       -4.4987343160     -0.2449915605     0.4311345177
O       -3.3330052524     0.0822175795     0.7226017304
H       -3.7353268180     1.3590363468     0.7482058814
H       -4.3336183734     2.2390541833     -0.7294661419
H       -2.6591235973     -0.3014057918     0.1504843536
$end
--------------------------------------------------------------

             Standard Nuclear Orientation (Angstroms)
    I     Atom           X                Y                Z
 ----------------------------------------------------------------
    1      C      -5.5424926824     0.5320471481    -0.1373776087
    2      C      -4.3966148852     1.3553634643    -0.1068163284
    3      H      -5.8549675890     0.1242121530    -1.0900380246
    4      H      -6.3268488835     0.7176037344     0.5841617838
    5      H      -4.4987343160    -0.2449915605     0.4311345177
    6      O      -3.3330052524     0.0822175795     0.7226017304
    7      H      -3.7353268180     1.3590363468     0.7482058814
    8      H      -4.3336183734     2.2390541833    -0.7294661419
    9      H      -2.6591235973    -0.3014057918     0.1504843536
 ----------------------------------------------------------------

    7    -154.7389702248      8.16E-05 Convergence criterion met
    8    -154.8179857129      9.16E-06 Convergence criterion met
 Total energy in the final basis set = -154.81798571

                    Orbital Energies (a.u.)
 --------------------------------------------------------------

 Alpha MOs
 -- Occupied --
-19.2595 -10.3270 -10.2537  -1.1240  -0.8694  -0.7049  -0.6441  -0.5536
 -0.5029  -0.4986  -0.4606  -0.3386  -0.3015

                    Cartesian Multipole Moments
 -----------------------------------------------------------------
    Charge (ESU x 10^10)
                -0.0000
    Dipole Moment (Debye)
         X       0.8731      Y       0.3114      Z      -1.2515
       Tot       1.5574
    Quadrupole Moments (Debye-Ang)
        XX     -27.2418     XY      -1.8531     YY     -19.5705
        XZ       3.4983     YZ      -0.0879     ZZ     -22.2374

 Total job time:  13.76s(wall), 73.16s(cpu)
        *  Thank you very much for using Q-Chem.  Have a nice day.  *
