 Q-Chem 5.3 (devel), Q-Chem, Inc., Pleasanton, CA (2020)
 Q-Chem 5.3.0 for Intel X86 EM64T Linux

User input:
--------------------------------------------------------------
$rem
   JOBTYPE  sp
   EXCHANGE   omegaB97X-D
   BASIS   6-311+G(2df,2pd)
   UNRESTRICTED   False
   max_scf_cycles   250
   geom_opt_max_cycles   1500
   basis2 6-31G*
   scf_algorithm rca_diis
   SYM_IGNORE  TRUE
   print_input   true
   geom_opt_dmax   80
   pop_mulliken false
   XC_GRID 000075000302
$end

$molecule
0 1
C       -5.5465885161     0.5499872589     -0.0838241468
C       -4.3801919112     1.3411655484     -0.1571422820
H       -5.8826104630     0.0483576186     -0.9821496856
H       -6.3157692210     0.8343041912     0.6217181391
H       -4.5146113588     -0.1871583952     0.5549764104
O       -3.3370643629     0.1392249005     0.7953931810
H       -4.2255008720     2.1703557309     0.5187961034
H       -3.8017985272     1.3905317815     -1.0712509768
H       -2.6765971650     -0.4236313777     0.3763734206
$end
--------------------------------------------------------------

             Standard Nuclear Orientation (Angstroms)
    I     Atom           X                Y                Z
 ----------------------------------------------------------------
    1      C      -5.5465885161     0.5499872589    -0.0838241468
    2      C      -4.3801919112     1.3411655484    -0.1571422820
    3      H      -5.8826104630     0.0483576186    -0.9821496856
    4      H      -6.3157692210     0.8343041912     0.6217181391
    5      H      -4.5146113588    -0.1871583952     0.5549764104
    6      O      -3.3370643629     0.1392249005     0.7953931810
    7      H      -4.2255008720     2.1703557309     0.5187961034
    8      H      -3.8017985272     1.3905317815    -1.0712509768
    9      H      -2.6765971650    -0.4236313777     0.3763734206
 ----------------------------------------------------------------

    7    -154.8608231002      3.93E-05 Convergence criterion met
    7    -154.9366644742      4.56E-06 Convergence criterion met
 Total energy in the final basis set = -154.93666447

                    Orbital Energies (a.u.)
 --------------------------------------------------------------

 Alpha MOs
 -- Occupied --
-19.2391 -10.3538 -10.2550  -1.0850  -0.8749  -0.6973  -0.6105  -0.5689
 -0.5067  -0.4552  -0.4388  -0.4223  -0.3064

                    Cartesian Multipole Moments
 -----------------------------------------------------------------
    Charge (ESU x 10^10)
                 0.0000
    Dipole Moment (Debye)
         X       0.5216      Y       0.3169      Z      -1.5303
       Tot       1.6475
    Quadrupole Moments (Debye-Ang)
        XX     -24.8549     XY      -2.1464     YY     -18.4196
        XZ       4.1544     YZ       0.2495     ZZ     -22.0600

 Total job time:  13.63s(wall), 71.08s(cpu)
        *  Thank you very much for using Q-Chem.  Have a nice day.  *
