 Q-Chem 5.3 (devel), Q-Chem, Inc., Pleasanton, CA (2020)
 Q-Chem 5.3.0 for Intel X86 EM64T Linux

User input:
--------------------------------------------------------------
$rem
   JOBTYPE  sp
   EXCHANGE   omegaB97X-D
   BASIS   6-311+G(2df,2pd)
   UNRESTRICTED   False
   max_scf_cycles   250
   geom_opt_max_cycles   1500
   basis2 6-31G*
   scf_algorithm rca_diis
   SYM_IGNORE  TRUE
   print_input   true
   geom_opt_dmax   80
   pop_mulliken false
   XC_GRID 000075000302
$end

$molecule
0 1
C       -5.5367495720     0.5414596053     -0.0818442675
C       -4.3607136896     1.3138247125     -0.1923495572
H       -6.0541970438     0.2632637861     -0.9909025816
H       -6.1513405867     0.6660594097     0.7996418444
H       -4.4492228731     -0.3352287531     0.1733613783
O       -3.2316810980     -0.0872887608     0.2573910939
H       -4.0431840795     1.9640554484     0.6106157683
H       -3.9525367396     1.5641692744     -1.1635806396
H       -2.9011067149     -0.0271774653     1.1605571243
$end
--------------------------------------------------------------

             Standard Nuclear Orientation (Angstroms)
    I     Atom           X                Y                Z
 ----------------------------------------------------------------
    1      C      -5.5367495720     0.5414596053    -0.0818442675
    2      C      -4.3607136896     1.3138247125    -0.1923495572
    3      H      -6.0541970438     0.2632637861    -0.9909025816
    4      H      -6.1513405867     0.6660594097     0.7996418444
    5      H      -4.4492228731    -0.3352287531     0.1733613783
    6      O      -3.2316810980    -0.0872887608     0.2573910939
    7      H      -4.0431840795     1.9640554484     0.6106157683
    8      H      -3.9525367396     1.5641692744    -1.1635806396
    9      H      -2.9011067149    -0.0271774653     1.1605571243
 ----------------------------------------------------------------

    7    -154.8612836218      4.13E-05 Convergence criterion met
    7    -154.9365391820      4.16E-06 Convergence criterion met
 Total energy in the final basis set = -154.93653918

                    Orbital Energies (a.u.)
 --------------------------------------------------------------

 Alpha MOs
 -- Occupied --
-19.2420 -10.3547 -10.2548  -1.0887  -0.8745  -0.6980  -0.6108  -0.5700
 -0.5081  -0.4569  -0.4419  -0.4266  -0.3045

                    Cartesian Multipole Moments
 -----------------------------------------------------------------
    Charge (ESU x 10^10)
                -0.0000
    Dipole Moment (Debye)
         X      -0.0392      Y       1.4470      Z       0.9888
       Tot       1.7531
    Quadrupole Moments (Debye-Ang)
        XX     -22.3233     XY      -4.5945     YY     -19.5964
        XZ      -2.4227     YZ      -0.0003     ZZ     -17.2661

 Total job time:  13.10s(wall), 68.48s(cpu)
        *  Thank you very much for using Q-Chem.  Have a nice day.  *
