 Q-Chem 5.3 (devel), Q-Chem, Inc., Pleasanton, CA (2020)
 Q-Chem 5.3.0 for Intel X86 EM64T Linux

User input:
--------------------------------------------------------------
$rem
   JOBTYPE  sp
   EXCHANGE   omegaB97X-D
   BASIS   6-311+G(2df,2pd)
   UNRESTRICTED   False
   max_scf_cycles   250
   geom_opt_max_cycles   1500
   basis2 6-31G*
   scf_algorithm rca_diis
   SYM_IGNORE  TRUE
   print_input   true
   geom_opt_dmax   80
   pop_mulliken false
   XC_GRID 000075000302
$end

$molecule
0 1
C       -5.5316399769     0.5281138751     -0.0720514639
C       -4.3034252517     1.2189464058     0.0057860459
H       -5.9461252804     0.3289257125     -1.0518768706
H       -6.2440409401     0.6561469440     0.7319120881
H       -4.5447306043     -0.4344727831     0.2683358680
O       -3.3342759974     -0.2779573101     0.5158146720
H       -4.0491260595     1.8078865079     0.8757629733
H       -3.7595320144     1.4832870532     -0.8924760572
H       -2.9678362725     0.5522608518     0.1916829077
$end
--------------------------------------------------------------

             Standard Nuclear Orientation (Angstroms)
    I     Atom           X                Y                Z
 ----------------------------------------------------------------
    1      C      -5.5316399769     0.5281138751    -0.0720514639
    2      C      -4.3034252517     1.2189464058     0.0057860459
    3      H      -5.9461252804     0.3289257125    -1.0518768706
    4      H      -6.2440409401     0.6561469440     0.7319120881
    5      H      -4.5447306043    -0.4344727831     0.2683358680
    6      O      -3.3342759974    -0.2779573101     0.5158146720
    7      H      -4.0491260595     1.8078865079     0.8757629733
    8      H      -3.7595320144     1.4832870532    -0.8924760572
    9      H      -2.9678362725     0.5522608518     0.1916829077
 ----------------------------------------------------------------

    7    -154.7948960992      5.78E-05 Convergence criterion met
    8    -154.8773633507      4.95E-06 Convergence criterion met
 Total energy in the final basis set = -154.87736335

                    Orbital Energies (a.u.)
 --------------------------------------------------------------

 Alpha MOs
 -- Occupied --
-19.2226 -10.3844 -10.2661  -1.1023  -0.8823  -0.7375  -0.6012  -0.5917
 -0.5162  -0.4905  -0.4679  -0.3803  -0.3010

                    Cartesian Multipole Moments
 -----------------------------------------------------------------
    Charge (ESU x 10^10)
                -0.0000
    Dipole Moment (Debye)
         X      -0.3885      Y       2.6762      Z      -0.9616
       Tot       2.8701
    Quadrupole Moments (Debye-Ang)
        XX     -18.7920     XY      -8.0308     YY     -18.7826
        XZ       2.3025     YZ       0.8169     ZZ     -20.5786

 Total job time:  14.25s(wall), 75.71s(cpu)
        *  Thank you very much for using Q-Chem.  Have a nice day.  *
