 Q-Chem 5.3 (devel), Q-Chem, Inc., Pleasanton, CA (2020)
 Q-Chem 5.3.0 for Intel X86 EM64T Linux

User input:
--------------------------------------------------------------
$rem
   JOBTYPE  sp
   EXCHANGE   omegaB97X-D
   BASIS   6-311+G(2df,2pd)
   UNRESTRICTED   False
   max_scf_cycles   250
   geom_opt_max_cycles   1500
   basis2 6-31G*
   scf_algorithm rca_diis
   SYM_IGNORE  TRUE
   print_input   true
   geom_opt_dmax   80
   pop_mulliken false
   XC_GRID 000075000302
$end

$molecule
0 1
C       -5.5466226092     0.5273308692     -0.1646528379
C       -4.3989881322     1.3485769153     -0.1822515186
H       -5.8379815250     0.0344923467     -1.0832125754
H       -6.3471027691     0.7790466049     0.5180884702
H       -4.5191775490     -0.1957655476     0.4970985812
O       -3.3595230289     0.1552805229     0.7850417308
H       -3.5304924203     1.1058757590     0.4137264377
H       -4.4671690273     2.3881745709     -0.4774780714
H       -2.6736753363     -0.2798747840     0.2665299467
$end
--------------------------------------------------------------

             Standard Nuclear Orientation (Angstroms)
    I     Atom           X                Y                Z
 ----------------------------------------------------------------
    1      C      -5.5466226092     0.5273308692    -0.1646528379
    2      C      -4.3989881322     1.3485769153    -0.1822515186
    3      H      -5.8379815250     0.0344923467    -1.0832125754
    4      H      -6.3471027691     0.7790466049     0.5180884702
    5      H      -4.5191775490    -0.1957655476     0.4970985812
    6      O      -3.3595230289     0.1552805229     0.7850417308
    7      H      -3.5304924203     1.1058757590     0.4137264377
    8      H      -4.4671690273     2.3881745709    -0.4774780714
    9      H      -2.6736753363    -0.2798747840     0.2665299467
 ----------------------------------------------------------------

   12    -154.6029790742      7.21E-05 Convergence criterion met
   13    -154.6773967464      6.51E-06 Convergence criterion met
 Total energy in the final basis set = -154.67739675

                    Orbital Energies (a.u.)
 --------------------------------------------------------------

 Alpha MOs
 -- Occupied --
-19.2803 -10.2932 -10.2574  -1.1817  -0.8652  -0.7269  -0.6491  -0.5773
 -0.5359  -0.4961  -0.4677  -0.3221  -0.2445

                    Cartesian Multipole Moments
 -----------------------------------------------------------------
    Charge (ESU x 10^10)
                -0.0000
    Dipole Moment (Debye)
         X       1.2605      Y      -0.3271      Z      -0.7775
       Tot       1.5167
    Quadrupole Moments (Debye-Ang)
        XX     -29.4807     XY       0.3439     YY     -20.6443
        XZ       1.4001     YZ       0.5270     ZZ     -23.6806

 Total job time:  22.52s(wall), 124.99s(cpu)
        *  Thank you very much for using Q-Chem.  Have a nice day.  *
