 Q-Chem 5.3 (devel), Q-Chem, Inc., Pleasanton, CA (2020)
 Q-Chem 5.3.0 for Intel X86 EM64T Linux

User input:
--------------------------------------------------------------
$rem
   JOBTYPE  sp
   EXCHANGE   omegaB97X-D
   BASIS   6-311+G(2df,2pd)
   UNRESTRICTED   False
   max_scf_cycles   250
   geom_opt_max_cycles   1500
   basis2 6-31G*
   scf_algorithm rca_diis
   SYM_IGNORE  TRUE
   print_input   true
   geom_opt_dmax   80
   pop_mulliken false
   XC_GRID 000075000302
$end

$molecule
0 1
C       -5.5483782011     0.5254647604     -0.1727005592
C       -4.4007562862     1.3463036191     -0.2044367087
H       -5.8319778204     0.0061809801     -1.0790379300
H       -6.3545734242     0.7964908089     0.4957746725
H       -4.5263947261     -0.1778133559     0.5182237407
O       -3.3692384723     0.1818539544     0.8055772462
H       -3.4827416289     1.0401021070     0.2770901337
H       -4.4876541926     2.4123890401     -0.3732006464
H       -2.6790176456     -0.2678346569     0.3056002146
$end
--------------------------------------------------------------

             Standard Nuclear Orientation (Angstroms)
    I     Atom           X                Y                Z
 ----------------------------------------------------------------
    1      C      -5.5483782011     0.5254647604    -0.1727005592
    2      C      -4.4007562862     1.3463036191    -0.2044367087
    3      H      -5.8319778204     0.0061809801    -1.0790379300
    4      H      -6.3545734242     0.7964908089     0.4957746725
    5      H      -4.5263947261    -0.1778133559     0.5182237407
    6      O      -3.3692384723     0.1818539544     0.8055772462
    7      H      -3.4827416289     1.0401021070     0.2770901337
    8      H      -4.4876541926     2.4123890401    -0.3732006464
    9      H      -2.6790176456    -0.2678346569     0.3056002146
 ----------------------------------------------------------------

    7    -154.6348068557      4.09E-05 Convergence criterion met
   11    -154.7181979217      5.44E-06 Convergence criterion met
 Total energy in the final basis set = -154.71819792

                    Orbital Energies (a.u.)
 --------------------------------------------------------------

 Alpha MOs
 -- Occupied --
-19.2711 -10.2924 -10.2620  -1.1854  -0.8687  -0.7269  -0.6456  -0.5809
 -0.5390  -0.4984  -0.4666  -0.3249  -0.2623

                    Cartesian Multipole Moments
 -----------------------------------------------------------------
    Charge (ESU x 10^10)
                 0.0000
    Dipole Moment (Debye)
         X       0.8800      Y      -0.4518      Z      -0.5670
       Tot       1.1402
    Quadrupole Moments (Debye-Ang)
        XX     -26.8126     XY       1.2526     YY     -20.5000
        XZ       1.8401     YZ       0.7335     ZZ     -22.9351

 Total job time:  18.63s(wall), 101.17s(cpu)
        *  Thank you very much for using Q-Chem.  Have a nice day.  *
