 Q-Chem 5.3 (devel), Q-Chem, Inc., Pleasanton, CA (2020)
 Q-Chem 5.3.0 for Intel X86 EM64T Linux

User input:
--------------------------------------------------------------
$rem
   JOBTYPE  sp
   EXCHANGE   omegaB97X-D
   BASIS   6-311+G(2df,2pd)
   UNRESTRICTED   False
   max_scf_cycles   250
   geom_opt_max_cycles   1500
   basis2 6-31G*
   scf_algorithm rca_diis
   SYM_IGNORE  TRUE
   print_input   true
   geom_opt_dmax   80
   pop_mulliken false
   XC_GRID 000075000302
$end

$molecule
0 1
C       -5.5483528481     0.4959395884     -0.2333250011
C       -4.4013625737     1.3119187702     -0.3353591128
H       -5.7228803303     -0.2413766925     -1.0062652823
H       -6.4280857453     0.9051491450     0.2450917212
H       -4.6207222622     0.0152773603     0.7283880740
O       -3.5050370208     0.4653528998     1.0502912549
H       -3.7426808075     1.2435829692     -1.1896699030
H       -3.9499667532     1.7447331000     0.5486568410
H       -2.7616440561     -0.0774398832     0.7650815713
$end
--------------------------------------------------------------

             Standard Nuclear Orientation (Angstroms)
    I     Atom           X                Y                Z
 ----------------------------------------------------------------
    1      C      -5.5483528481     0.4959395884    -0.2333250011
    2      C      -4.4013625737     1.3119187702    -0.3353591128
    3      H      -5.7228803303    -0.2413766925    -1.0062652823
    4      H      -6.4280857453     0.9051491450     0.2450917212
    5      H      -4.6207222622     0.0152773603     0.7283880740
    6      O      -3.5050370208     0.4653528998     1.0502912549
    7      H      -3.7426808075     1.2435829692    -1.1896699030
    8      H      -3.9499667532     1.7447331000     0.5486568410
    9      H      -2.7616440561    -0.0774398832     0.7650815713
 ----------------------------------------------------------------

    7    -154.8034646152      4.46E-05 Convergence criterion met
    8    -154.8805844758      4.53E-06 Convergence criterion met
 Total energy in the final basis set = -154.88058448

                    Orbital Energies (a.u.)
 --------------------------------------------------------------

 Alpha MOs
 -- Occupied --
-19.2452 -10.3334 -10.2593  -1.1089  -0.8732  -0.7047  -0.6316  -0.5561
 -0.5153  -0.4650  -0.4631  -0.3706  -0.3122

                    Cartesian Multipole Moments
 -----------------------------------------------------------------
    Charge (ESU x 10^10)
                 0.0000
    Dipole Moment (Debye)
         X       0.9951      Y      -0.4376      Z      -1.3110
       Tot       1.7031
    Quadrupole Moments (Debye-Ang)
        XX     -27.8033     XY       1.4284     YY     -21.0183
        XZ       4.0641     YZ      -0.5965     ZZ     -22.7787

 Total job time:  15.71s(wall), 83.41s(cpu)
        *  Thank you very much for using Q-Chem.  Have a nice day.  *
