 Q-Chem 5.3 (devel), Q-Chem, Inc., Pleasanton, CA (2020)
 Q-Chem 5.3.0 for Intel X86 EM64T Linux

User input:
--------------------------------------------------------------
$rem
   JOBTYPE  sp
   EXCHANGE   omegaB97X-D
   BASIS   6-311+G(2df,2pd)
   UNRESTRICTED   False
   max_scf_cycles   250
   geom_opt_max_cycles   1500
   basis2 6-31G*
   scf_algorithm rca_diis
   SYM_IGNORE  TRUE
   print_input   true
   geom_opt_dmax   80
   pop_mulliken false
   XC_GRID 000075000302
$end

$molecule
0 1
C       -5.5298755009     0.5278557354     -0.0721034487
C       -4.2940624783     1.2081370164     -0.0296390329
H       -5.9772475431     0.3382119519     -1.0392773264
H       -6.2150092365     0.6566509613     0.7551018136
H       -4.5406314443     -0.4448727264     0.2305882365
O       -3.3215909582     -0.2998000294     0.4399620957
H       -4.0070556902     1.7895092054     0.8352377552
H       -3.7770900069     1.4736621576     -0.9433164928
H       -3.0181695390     0.6137829851     0.3963365633
$end
--------------------------------------------------------------

             Standard Nuclear Orientation (Angstroms)
    I     Atom           X                Y                Z
 ----------------------------------------------------------------
    1      C      -5.5298755009     0.5278557354    -0.0721034487
    2      C      -4.2940624783     1.2081370164    -0.0296390329
    3      H      -5.9772475431     0.3382119519    -1.0392773264
    4      H      -6.2150092365     0.6566509613     0.7551018136
    5      H      -4.5406314443    -0.4448727264     0.2305882365
    6      O      -3.3215909582    -0.2998000294     0.4399620957
    7      H      -4.0070556902     1.7895092054     0.8352377552
    8      H      -3.7770900069     1.4736621576    -0.9433164928
    9      H      -3.0181695390     0.6137829851     0.3963365633
 ----------------------------------------------------------------

    7    -154.7895220765      5.71E-05 Convergence criterion met
    8    -154.8727435758      4.89E-06 Convergence criterion met
 Total energy in the final basis set = -154.87274358

                    Orbital Energies (a.u.)
 --------------------------------------------------------------

 Alpha MOs
 -- Occupied --
-19.2205 -10.3865 -10.2671  -1.1030  -0.8830  -0.7408  -0.6020  -0.5922
 -0.5168  -0.4914  -0.4688  -0.3774  -0.3010

                    Cartesian Multipole Moments
 -----------------------------------------------------------------
    Charge (ESU x 10^10)
                -0.0000
    Dipole Moment (Debye)
         X      -0.5234      Y       2.8134      Z      -0.5803
       Tot       2.9199
    Quadrupole Moments (Debye-Ang)
        XX     -17.9917     XY      -8.4114     YY     -18.6315
        XZ       1.4826     YZ       1.0387     ZZ     -20.2058

 Total job time:  16.06s(wall), 84.99s(cpu)
        *  Thank you very much for using Q-Chem.  Have a nice day.  *
