 Q-Chem 5.3 (devel), Q-Chem, Inc., Pleasanton, CA (2020)
 Q-Chem 5.3.0 for Intel X86 EM64T Linux

User input:
--------------------------------------------------------------
$rem
   JOBTYPE  sp
   EXCHANGE   omegaB97X-D
   BASIS   6-311+G(2df,2pd)
   UNRESTRICTED   False
   max_scf_cycles   250
   geom_opt_max_cycles   1500
   basis2 6-31G*
   scf_algorithm rca_diis
   SYM_IGNORE  TRUE
   print_input   true
   geom_opt_dmax   80
   pop_mulliken false
   XC_GRID 000075000302
$end

$molecule
0 1
C       -5.5532720988     0.5189177729     -0.1939692604
C       -4.4070557156     1.3396728544     -0.2600659607
H       -5.8105835543     -0.0725678874     -1.0631455066
H       -6.3782157925     0.8390405214     0.4283283533
H       -4.5491720712     -0.1221897486     0.5788120805
O       -3.4011972038     0.2644883677     0.8679088550
H       -3.4147804604     0.9195487636     -0.1748371898
H       -4.4700223789     2.3969635424     -0.0348055831
H       -2.6964331219     -0.2207369294     0.4246643751
$end
--------------------------------------------------------------

             Standard Nuclear Orientation (Angstroms)
    I     Atom           X                Y                Z
 ----------------------------------------------------------------
    1      C      -5.5532720988     0.5189177729    -0.1939692604
    2      C      -4.4070557156     1.3396728544    -0.2600659607
    3      H      -5.8105835543    -0.0725678874    -1.0631455066
    4      H      -6.3782157925     0.8390405214     0.4283283533
    5      H      -4.5491720712    -0.1221897486     0.5788120805
    6      O      -3.4011972038     0.2644883677     0.8679088550
    7      H      -3.4147804604     0.9195487636    -0.1748371898
    8      H      -4.4700223789     2.3969635424    -0.0348055831
    9      H      -2.6964331219    -0.2207369294     0.4246643751
 ----------------------------------------------------------------

    7    -154.7432361738      5.16E-05 Convergence criterion met
    9    -154.8234942539      5.72E-06 Convergence criterion met
 Total energy in the final basis set = -154.82349425

                    Orbital Energies (a.u.)
 --------------------------------------------------------------

 Alpha MOs
 -- Occupied --
-19.2620 -10.3195 -10.2592  -1.1481  -0.8704  -0.7056  -0.6308  -0.5781
 -0.5283  -0.4909  -0.4616  -0.3287  -0.3178

                    Cartesian Multipole Moments
 -----------------------------------------------------------------
    Charge (ESU x 10^10)
                 0.0000
    Dipole Moment (Debye)
         X       0.8165      Y      -0.2014      Z      -0.8111
       Tot       1.1684
    Quadrupole Moments (Debye-Ang)
        XX     -26.1717     XY      -0.2689     YY     -19.3710
        XZ       2.0984     YZ       0.4653     ZZ     -23.7729

 Total job time:  16.05s(wall), 85.26s(cpu)
        *  Thank you very much for using Q-Chem.  Have a nice day.  *
