 Q-Chem 5.3 (devel), Q-Chem, Inc., Pleasanton, CA (2020)
 Q-Chem 5.3.0 for Intel X86 EM64T Linux

User input:
--------------------------------------------------------------
$rem
   JOBTYPE  sp
   EXCHANGE   omegaB97X-D
   BASIS   6-311+G(2df,2pd)
   UNRESTRICTED   False
   max_scf_cycles   250
   geom_opt_max_cycles   1500
   basis2 6-31G*
   scf_algorithm rca_diis
   SYM_IGNORE  TRUE
   print_input   true
   geom_opt_dmax   80
   pop_mulliken false
   XC_GRID 000075000302
$end

$molecule
0 1
C       -5.5484740856     0.5535287946     -0.0859110304
C       -4.4035648503     1.3731465013     -0.1819804455
H       -5.9159705080     0.0792305208     -0.9867547157
H       -6.2892768616     0.7930941408     0.6651446826
H       -4.4723881540     -0.1840089936     0.4748953526
O       -3.2918658639     0.1594982390     0.6731706933
H       -4.2344690872     2.1791007840     0.5181786038
H       -3.8700822406     1.4706096672     -1.1192466158
H       -2.6546407462     -0.5610623971     0.6153936384
$end
--------------------------------------------------------------

             Standard Nuclear Orientation (Angstroms)
    I     Atom           X                Y                Z
 ----------------------------------------------------------------
    1      C      -5.5484740856     0.5535287946    -0.0859110304
    2      C      -4.4035648503     1.3731465013    -0.1819804455
    3      H      -5.9159705080     0.0792305208    -0.9867547157
    4      H      -6.2892768616     0.7930941408     0.6651446826
    5      H      -4.4723881540    -0.1840089936     0.4748953526
    6      O      -3.2918658639     0.1594982390     0.6731706933
    7      H      -4.2344690872     2.1791007840     0.5181786038
    8      H      -3.8700822406     1.4706096672    -1.1192466158
    9      H      -2.6546407462    -0.5610623971     0.6153936384
 ----------------------------------------------------------------

    7    -154.8495907666      3.84E-05 Convergence criterion met
    9    -154.9278295407      4.26E-06 Convergence criterion met
 Total energy in the final basis set = -154.92782954

                    Orbital Energies (a.u.)
 --------------------------------------------------------------

 Alpha MOs
 -- Occupied --
-19.2249 -10.3543 -10.2595  -1.0726  -0.8769  -0.6989  -0.6073  -0.5694
 -0.5091  -0.4531  -0.4385  -0.3932  -0.3126

                    Cartesian Multipole Moments
 -----------------------------------------------------------------
    Charge (ESU x 10^10)
                 0.0000
    Dipole Moment (Debye)
         X       0.1714      Y       0.1246      Z      -1.0202
       Tot       1.0420
    Quadrupole Moments (Debye-Ang)
        XX     -21.9889     XY      -1.7184     YY     -17.8543
        XZ       3.0052     YZ      -0.3555     ZZ     -21.2700

 Total job time:  15.58s(wall), 82.46s(cpu)
        *  Thank you very much for using Q-Chem.  Have a nice day.  *
