 Q-Chem 5.3 (devel), Q-Chem, Inc., Pleasanton, CA (2020)
 Q-Chem 5.3.0 for Intel X86 EM64T Linux

User input:
--------------------------------------------------------------
$rem
   JOBTYPE  sp
   EXCHANGE   omegaB97X-D
   BASIS   6-311+G(2df,2pd)
   UNRESTRICTED   False
   max_scf_cycles   250
   geom_opt_max_cycles   1500
   basis2 6-31G*
   scf_algorithm rca_diis
   SYM_IGNORE  TRUE
   print_input   true
   geom_opt_dmax   80
   pop_mulliken false
   XC_GRID 000075000302
$end

$molecule
0 1
C       -5.5269038504     0.4751794867     -0.2484644886
C       -4.3623785713     1.2643053195     -0.3623985438
H       -5.6627018531     -0.3412664969     -0.9459647945
H       -6.4291412005     0.9427689441     0.1224706207
H       -4.6721657088     0.0950119506     0.8198622750
O       -3.5726200612     0.5675414777     1.1643305926
H       -4.0917138078     1.7265187460     -1.3012689881
H       -3.5418631755     1.1433152847     0.3337957784
H       -2.8212441687     -0.0102374555     0.9905277115
$end
--------------------------------------------------------------

             Standard Nuclear Orientation (Angstroms)
    I     Atom           X                Y                Z
 ----------------------------------------------------------------
    1      C      -5.5269038504     0.4751794867    -0.2484644886
    2      C      -4.3623785713     1.2643053195    -0.3623985438
    3      H      -5.6627018531    -0.3412664969    -0.9459647945
    4      H      -6.4291412005     0.9427689441     0.1224706207
    5      H      -4.6721657088     0.0950119506     0.8198622750
    6      O      -3.5726200612     0.5675414777     1.1643305926
    7      H      -4.0917138078     1.7265187460    -1.3012689881
    8      H      -3.5418631755     1.1433152847     0.3337957784
    9      H      -2.8212441687    -0.0102374555     0.9905277115
 ----------------------------------------------------------------

    7    -154.6246688371      3.41E-05 Convergence criterion met
   13    -154.7091291429      2.38E-06 Convergence criterion met
 Total energy in the final basis set = -154.70912914

                    Orbital Energies (a.u.)
 --------------------------------------------------------------

 Alpha MOs
 -- Occupied --
-19.2766 -10.2901 -10.2597  -1.1893  -0.8680  -0.7235  -0.6509  -0.5818
 -0.5315  -0.5033  -0.4700  -0.3240  -0.2580

                    Cartesian Multipole Moments
 -----------------------------------------------------------------
    Charge (ESU x 10^10)
                -0.0000
    Dipole Moment (Debye)
         X       1.3601      Y      -1.1598      Z      -0.6378
       Tot       1.8978
    Quadrupole Moments (Debye-Ang)
        XX     -29.8084     XY       3.8618     YY     -22.7888
        XZ       2.5116     YZ      -1.6967     ZZ     -23.3499

 Total job time:  19.34s(wall), 106.69s(cpu)
        *  Thank you very much for using Q-Chem.  Have a nice day.  *
