 Q-Chem 5.3 (devel), Q-Chem, Inc., Pleasanton, CA (2020)
 Q-Chem 5.3.0 for Intel X86 EM64T Linux

User input:
--------------------------------------------------------------
$rem
   JOBTYPE  sp
   EXCHANGE   omegaB97X-D
   BASIS   6-311+G(2df,2pd)
   UNRESTRICTED   False
   max_scf_cycles   250
   geom_opt_max_cycles   1500
   basis2 6-31G*
   scf_algorithm rca_diis
   SYM_IGNORE  TRUE
   print_input   true
   geom_opt_dmax   80
   pop_mulliken false
   XC_GRID 000075000302
$end

$molecule
0 1
C       -5.5501447361     0.5234348408     -0.1802502467
C       -4.4028006941     1.3440632478     -0.2248634891
H       -5.8255016912     -0.0211507307     -1.0741948317
H       -6.3623108459     0.8122872684     0.4733669785
H       -4.5337915903     -0.1594304491     0.5388797825
O       -3.3794108892     0.2091065018     0.8261582534
H       -3.4471656516     0.9862565588     0.1316675979
H       -4.4950324604     2.4223136167     -0.2628118864
H       -2.6845738386     -0.2537435974     0.3449380048
$end
--------------------------------------------------------------

             Standard Nuclear Orientation (Angstroms)
    I     Atom           X                Y                Z
 ----------------------------------------------------------------
    1      C      -5.5501447361     0.5234348408    -0.1802502467
    2      C      -4.4028006941     1.3440632478    -0.2248634891
    3      H      -5.8255016912    -0.0211507307    -1.0741948317
    4      H      -6.3623108459     0.8122872684     0.4733669785
    5      H      -4.5337915903    -0.1594304491     0.5388797825
    6      O      -3.3794108892     0.2091065018     0.8261582534
    7      H      -3.4471656516     0.9862565588     0.1316675979
    8      H      -4.4950324604     2.4223136167    -0.2628118864
    9      H      -2.6845738386    -0.2537435974     0.3449380048
 ----------------------------------------------------------------

    7    -154.6708683931      4.26E-05 Convergence criterion met
    9    -154.7536304134      3.51E-06 Convergence criterion met
 Total energy in the final basis set = -154.75363041

                    Orbital Energies (a.u.)
 --------------------------------------------------------------

 Alpha MOs
 -- Occupied --
-19.2744 -10.2981 -10.2601  -1.1845  -0.8683  -0.7196  -0.6444  -0.5818
 -0.5413  -0.4954  -0.4671  -0.3244  -0.2823

                    Cartesian Multipole Moments
 -----------------------------------------------------------------
    Charge (ESU x 10^10)
                 0.0000
    Dipole Moment (Debye)
         X       0.9355      Y      -0.4478      Z      -0.5321
       Tot       1.1657
    Quadrupole Moments (Debye-Ang)
        XX     -27.2087     XY       0.9981     YY     -20.0731
        XZ       1.5873     YZ       0.5734     ZZ     -23.2984

 Total job time:  15.72s(wall), 83.31s(cpu)
        *  Thank you very much for using Q-Chem.  Have a nice day.  *
