 Q-Chem 5.3 (devel), Q-Chem, Inc., Pleasanton, CA (2020)
 Q-Chem 5.3.0 for Intel X86 EM64T Linux

User input:
--------------------------------------------------------------
$rem
   JOBTYPE  sp
   EXCHANGE   omegaB97X-D
   BASIS   6-311+G(2df,2pd)
   UNRESTRICTED   False
   max_scf_cycles   250
   geom_opt_max_cycles   1500
   basis2 6-31G*
   scf_algorithm rca_diis
   SYM_IGNORE  TRUE
   print_input   true
   geom_opt_dmax   80
   pop_mulliken false
   XC_GRID 000075000302
$end

$molecule
0 1
C       -5.5296748307     0.5304444731     -0.0741106738
C       -4.3027599937     1.2271448154     -0.1074016696
H       -6.0335163232     0.3352367814     -1.0119643542
H       -6.1639234564     0.6497477884     0.7940830786
H       -4.5107377517     -0.4291142077     0.1655580294
O       -3.2831089710     -0.2678661189     0.2992361421
H       -3.9705056165     1.8119466288     0.7387615800
H       -3.8469333985     1.4999168829     -1.0510054804
H       -3.0395720556     0.5056802137     0.8197335111
$end
--------------------------------------------------------------

             Standard Nuclear Orientation (Angstroms)
    I     Atom           X                Y                Z
 ----------------------------------------------------------------
    1      C      -5.5296748307     0.5304444731    -0.0741106738
    2      C      -4.3027599937     1.2271448154    -0.1074016696
    3      H      -6.0335163232     0.3352367814    -1.0119643542
    4      H      -6.1639234564     0.6497477884     0.7940830786
    5      H      -4.5107377517    -0.4291142077     0.1655580294
    6      O      -3.2831089710    -0.2678661189     0.2992361421
    7      H      -3.9705056165     1.8119466288     0.7387615800
    8      H      -3.8469333985     1.4999168829    -1.0510054804
    9      H      -3.0395720556     0.5056802137     0.8197335111
 ----------------------------------------------------------------

    7    -154.8229644535      5.66E-05 Convergence criterion met
    8    -154.9018865339      2.87E-06 Convergence criterion met
 Total energy in the final basis set = -154.90188653

                    Orbital Energies (a.u.)
 --------------------------------------------------------------

 Alpha MOs
 -- Occupied --
-19.2350 -10.3728 -10.2612  -1.0998  -0.8785  -0.7206  -0.6118  -0.5797
 -0.5112  -0.4830  -0.4588  -0.4024  -0.3021

                    Cartesian Multipole Moments
 -----------------------------------------------------------------
    Charge (ESU x 10^10)
                -0.0000
    Dipole Moment (Debye)
         X      -0.3351      Y       2.4757      Z       0.2687
       Tot       2.5127
    Quadrupole Moments (Debye-Ang)
        XX     -20.0361     XY      -7.3589     YY     -19.1631
        XZ      -0.5953     YZ       1.2294     ZZ     -18.8591

 Total job time:  15.71s(wall), 82.74s(cpu)
        *  Thank you very much for using Q-Chem.  Have a nice day.  *
