 Q-Chem 5.3 (devel), Q-Chem, Inc., Pleasanton, CA (2020)
 Q-Chem 5.3.0 for Intel X86 EM64T Linux

User input:
--------------------------------------------------------------
$rem
   JOBTYPE  sp
   EXCHANGE   omegaB97X-D
   BASIS   6-311+G(2df,2pd)
   UNRESTRICTED   False
   max_scf_cycles   250
   geom_opt_max_cycles   1500
   basis2 6-31G*
   scf_algorithm rca_diis
   SYM_IGNORE  TRUE
   print_input   true
   geom_opt_dmax   80
   pop_mulliken false
   XC_GRID 000075000302
$end

$molecule
0 1
C       -5.5481252443     0.5526228443     -0.0852714524
C       -4.3972932275     1.3647538795     -0.1738633565
H       -5.9031773705     0.0673836942     -0.9852785486
H       -6.2999980717     0.8068274062     0.6498015263
H       -4.4855866650     -0.1824329306     0.5039072095
O       -3.3066594509     0.1576797267     0.7169734223
H       -4.2354506692     2.1797726092     0.5174613384
H       -3.8477594885     1.4459553032     -1.1033737846
H       -2.6566822097     -0.5294252755     0.5325338090
$end
--------------------------------------------------------------

             Standard Nuclear Orientation (Angstroms)
    I     Atom           X                Y                Z
 ----------------------------------------------------------------
    1      C      -5.5481252443     0.5526228443    -0.0852714524
    2      C      -4.3972932275     1.3647538795    -0.1738633565
    3      H      -5.9031773705     0.0673836942    -0.9852785486
    4      H      -6.2999980717     0.8068274062     0.6498015263
    5      H      -4.4855866650    -0.1824329306     0.5039072095
    6      O      -3.3066594509     0.1576797267     0.7169734223
    7      H      -4.2354506692     2.1797726092     0.5174613384
    8      H      -3.8477594885     1.4459553032    -1.1033737846
    9      H      -2.6566822097    -0.5294252755     0.5325338090
 ----------------------------------------------------------------

    7    -154.8540110564      3.78E-05 Convergence criterion met
    7    -154.9313597857      6.39E-06 Convergence criterion met
 Total energy in the final basis set = -154.93135979

                    Orbital Energies (a.u.)
 --------------------------------------------------------------

 Alpha MOs
 -- Occupied --
-19.2300 -10.3540 -10.2577  -1.0769  -0.8762  -0.6981  -0.6085  -0.5690
 -0.5083  -0.4532  -0.4389  -0.4035  -0.3102

                    Cartesian Multipole Moments
 -----------------------------------------------------------------
    Charge (ESU x 10^10)
                 0.0000
    Dipole Moment (Debye)
         X       0.3088      Y       0.1542      Z      -1.2157
       Tot       1.2638
    Quadrupole Moments (Debye-Ang)
        XX     -23.0859     XY      -1.7876     YY     -17.9988
        XZ       3.4635     YZ      -0.1454     ZZ     -21.6107

 Total job time:  13.50s(wall), 70.52s(cpu)
        *  Thank you very much for using Q-Chem.  Have a nice day.  *
