 Q-Chem 5.3 (devel), Q-Chem, Inc., Pleasanton, CA (2020)
 Q-Chem 5.3.0 for Intel X86 EM64T Linux

User input:
--------------------------------------------------------------
$rem
   JOBTYPE  sp
   EXCHANGE   omegaB97X-D
   BASIS   6-311+G(2df,2pd)
   UNRESTRICTED   False
   max_scf_cycles   250
   geom_opt_max_cycles   1500
   basis2 6-31G*
   scf_algorithm rca_diis
   SYM_IGNORE  TRUE
   print_input   true
   geom_opt_dmax   80
   pop_mulliken false
   XC_GRID 000075000302
$end

$molecule
0 1
C       -5.4979572184     0.4440494735     -0.2607073989
C       -4.3019181271     1.1796343608     -0.4029221669
H       -5.6202904719     -0.4541965707     -0.8520790565
H       -6.4038642183     0.9807887494     -0.0126984287
H       -4.7222152348     0.1870863756     0.9005940527
O       -3.6293692247     0.6718661465     1.2493337533
H       -4.2762998691     2.0974918820     -0.9732375646
H       -3.3392592040     0.7001532063     -0.2766040862
H       -2.8895588290     0.0562636337     1.2012110591
$end
--------------------------------------------------------------

             Standard Nuclear Orientation (Angstroms)
    I     Atom           X                Y                Z
 ----------------------------------------------------------------
    1      C      -5.4979572184     0.4440494735    -0.2607073989
    2      C      -4.3019181271     1.1796343608    -0.4029221669
    3      H      -5.6202904719    -0.4541965707    -0.8520790565
    4      H      -6.4038642183     0.9807887494    -0.0126984287
    5      H      -4.7222152348     0.1870863756     0.9005940527
    6      O      -3.6293692247     0.6718661465     1.2493337533
    7      H      -4.2762998691     2.0974918820    -0.9732375646
    8      H      -3.3392592040     0.7001532063    -0.2766040862
    9      H      -2.8895588290     0.0562636337     1.2012110591
 ----------------------------------------------------------------

    7    -154.7778130238      5.56E-05 Convergence criterion met
    8    -154.8554177123      6.43E-06 Convergence criterion met
 Total energy in the final basis set = -154.85541771

                    Orbital Energies (a.u.)
 --------------------------------------------------------------

 Alpha MOs
 -- Occupied --
-19.2480 -10.3449 -10.2566  -1.1091  -0.8726  -0.6999  -0.6241  -0.5676
 -0.5113  -0.4888  -0.4554  -0.3547  -0.3078

                    Cartesian Multipole Moments
 -----------------------------------------------------------------
    Charge (ESU x 10^10)
                 0.0000
    Dipole Moment (Debye)
         X       1.0164      Y      -0.4702      Z      -1.3513
       Tot       1.7551
    Quadrupole Moments (Debye-Ang)
        XX     -27.8464     XY       0.7434     YY     -20.0441
        XZ       5.7242     YZ      -2.7602     ZZ     -23.7616

 Total job time:  15.76s(wall), 83.58s(cpu)
        *  Thank you very much for using Q-Chem.  Have a nice day.  *
