 Q-Chem 5.3 (devel), Q-Chem, Inc., Pleasanton, CA (2020)
 Q-Chem 5.3.0 for Intel X86 EM64T Linux

User input:
--------------------------------------------------------------
$rem
   JOBTYPE  sp
   EXCHANGE   omegaB97X-D
   BASIS   6-311+G(2df,2pd)
   UNRESTRICTED   False
   max_scf_cycles   250
   geom_opt_max_cycles   1500
   basis2 6-31G*
   scf_algorithm rca_diis
   SYM_IGNORE  TRUE
   print_input   true
   geom_opt_dmax   80
   pop_mulliken false
   XC_GRID 000075000302
$end

$molecule
0 1
C       -5.5323571617     0.5351277074     -0.0776296628
C       -4.3284283390     1.2672323367     -0.1576163878
H       -6.0557461660     0.3078454378     -0.9973788344
H       -6.1457347338     0.6514695529     0.8058280447
H       -4.4786828858     -0.3891791091     0.1500853995
O       -3.2532645378     -0.1891115726     0.2463457759
H       -3.9907778648     1.8770903178     0.6684851661
H       -3.9072444421     1.5360420256     -1.1183016191
H       -2.9884962663     0.2666205606     1.0530722811
$end
--------------------------------------------------------------

             Standard Nuclear Orientation (Angstroms)
    I     Atom           X                Y                Z
 ----------------------------------------------------------------
    1      C      -5.5323571617     0.5351277074    -0.0776296628
    2      C      -4.3284283390     1.2672323367    -0.1576163878
    3      H      -6.0557461660     0.3078454378    -0.9973788344
    4      H      -6.1457347338     0.6514695529     0.8058280447
    5      H      -4.4786828858    -0.3891791091     0.1500853995
    6      O      -3.2532645378    -0.1891115726     0.2463457759
    7      H      -3.9907778648     1.8770903178     0.6684851661
    8      H      -3.9072444421     1.5360420256    -1.1183016191
    9      H      -2.9884962663     0.2666205606     1.0530722811
 ----------------------------------------------------------------

    7    -154.8519686015      4.85E-05 Convergence criterion met
    7    -154.9276379459      9.40E-06 Convergence criterion met
 Total energy in the final basis set = -154.92763795

                    Orbital Energies (a.u.)
 --------------------------------------------------------------

 Alpha MOs
 -- Occupied --
-19.2447 -10.3599 -10.2561  -1.0960  -0.8748  -0.7038  -0.6120  -0.5734
 -0.5085  -0.4698  -0.4486  -0.4239  -0.3028

                    Cartesian Multipole Moments
 -----------------------------------------------------------------
    Charge (ESU x 10^10)
                -0.0000
    Dipole Moment (Debye)
         X      -0.0967      Y       1.9723      Z       0.7756
       Tot       2.1216
    Quadrupole Moments (Debye-Ang)
        XX     -22.0737     XY      -5.9282     YY     -19.6563
        XZ      -1.9252     YZ       0.8169     ZZ     -17.7890

 Total job time:  12.86s(wall), 67.77s(cpu)
        *  Thank you very much for using Q-Chem.  Have a nice day.  *
