 Q-Chem 5.3 (devel), Q-Chem, Inc., Pleasanton, CA (2020)
 Q-Chem 5.3.0 for Intel X86 EM64T Linux

User input:
--------------------------------------------------------------
$rem
   JOBTYPE  sp
   EXCHANGE   omegaB97X-D
   BASIS   6-311+G(2df,2pd)
   UNRESTRICTED   False
   max_scf_cycles   250
   geom_opt_max_cycles   1500
   basis2 6-31G*
   scf_algorithm rca_diis
   SYM_IGNORE  TRUE
   print_input   true
   geom_opt_dmax   80
   pop_mulliken false
   XC_GRID 000075000302
$end

$molecule
0 1
C       -5.5510087821     0.4993159717     -0.2295890457
C       -4.4055343172     1.3176461363     -0.3298071403
H       -5.7355014743     -0.2220843182     -1.0151308248
H       -6.4244847208     0.8983113806     0.2685147992
H       -4.6108845355     -0.0005880380     0.7099263092
O       -3.4911533482     0.4432226131     1.0264344152
H       -3.6733633963     1.1589556687     -1.1089871294
H       -4.0373258882     1.8616935218     0.5310097000
H       -2.7514759347     -0.0933356789     0.7205190800
$end
--------------------------------------------------------------

             Standard Nuclear Orientation (Angstroms)
    I     Atom           X                Y                Z
 ----------------------------------------------------------------
    1      C      -5.5510087821     0.4993159717    -0.2295890457
    2      C      -4.4055343172     1.3176461363    -0.3298071403
    3      H      -5.7355014743    -0.2220843182    -1.0151308248
    4      H      -6.4244847208     0.8983113806     0.2685147992
    5      H      -4.6108845355    -0.0005880380     0.7099263092
    6      O      -3.4911533482     0.4432226131     1.0264344152
    7      H      -3.6733633963     1.1589556687    -1.1089871294
    8      H      -4.0373258882     1.8616935218     0.5310097000
    9      H      -2.7514759347    -0.0933356789     0.7205190800
 ----------------------------------------------------------------

    7    -154.8234363160      4.28E-05 Convergence criterion met
    8    -154.8997154650      3.52E-06 Convergence criterion met
 Total energy in the final basis set = -154.89971546

                    Orbital Energies (a.u.)
 --------------------------------------------------------------

 Alpha MOs
 -- Occupied --
-19.2378 -10.3409 -10.2610  -1.0970  -0.8745  -0.7027  -0.6219  -0.5578
 -0.5151  -0.4632  -0.4511  -0.3884  -0.3107

                    Cartesian Multipole Moments
 -----------------------------------------------------------------
    Charge (ESU x 10^10)
                 0.0000
    Dipole Moment (Debye)
         X       0.8364      Y      -0.2882      Z      -1.4155
       Tot       1.6692
    Quadrupole Moments (Debye-Ang)
        XX     -26.5147     XY       0.7236     YY     -20.5002
        XZ       4.1909     YZ      -0.3345     ZZ     -22.9827

 Total job time:  15.87s(wall), 83.81s(cpu)
        *  Thank you very much for using Q-Chem.  Have a nice day.  *
