 Q-Chem 5.3 (devel), Q-Chem, Inc., Pleasanton, CA (2020)
 Q-Chem 5.3.0 for Intel X86 EM64T Linux

User input:
--------------------------------------------------------------
$rem
   JOBTYPE  sp
   EXCHANGE   omegaB97X-D
   BASIS   6-311+G(2df,2pd)
   UNRESTRICTED   False
   max_scf_cycles   250
   geom_opt_max_cycles   1500
   basis2 6-31G*
   scf_algorithm rca_diis
   SYM_IGNORE  TRUE
   print_input   true
   geom_opt_dmax   80
   pop_mulliken false
   XC_GRID 000075000302
$end

$molecule
0 1
C       -5.5450925004     0.4923501366     -0.2367904543
C       -4.3959579464     1.3050885197     -0.3405486922
H       -5.7102142608     -0.2606974273     -0.9965180299
H       -6.4306123989     0.9121234492     0.2213687621
H       -4.6307659212     0.0309751557     0.7468592565
O       -3.5189319188     0.4867091366     1.0740822644
H       -3.8149097254     1.3354650602     -1.2515034704
H       -3.8618105721     1.6236210799     0.5459016606
H       -2.7724371532     -0.0624978535     0.8100388664
$end
--------------------------------------------------------------

             Standard Nuclear Orientation (Angstroms)
    I     Atom           X                Y                Z
 ----------------------------------------------------------------
    1      C      -5.5450925004     0.4923501366    -0.2367904543
    2      C      -4.3959579464     1.3050885197    -0.3405486922
    3      H      -5.7102142608    -0.2606974273    -0.9965180299
    4      H      -6.4306123989     0.9121234492     0.2213687621
    5      H      -4.6307659212     0.0309751557     0.7468592565
    6      O      -3.5189319188     0.4867091366     1.0740822644
    7      H      -3.8149097254     1.3354650602    -1.2515034704
    8      H      -3.8618105721     1.6236210799     0.5459016606
    9      H      -2.7724371532    -0.0624978535     0.8100388664
 ----------------------------------------------------------------

    7    -154.7764210339      4.90E-05 Convergence criterion met
    8    -154.8548859400      8.03E-06 Convergence criterion met
 Total energy in the final basis set = -154.85488594

                    Orbital Energies (a.u.)
 --------------------------------------------------------------

 Alpha MOs
 -- Occupied --
-19.2554 -10.3231 -10.2576  -1.1264  -0.8715  -0.7091  -0.6410  -0.5598
 -0.5134  -0.4795  -0.4652  -0.3487  -0.3142

                    Cartesian Multipole Moments
 -----------------------------------------------------------------
    Charge (ESU x 10^10)
                 0.0000
    Dipole Moment (Debye)
         X       1.1822      Y      -0.6309      Z      -1.1437
       Tot       1.7617
    Quadrupole Moments (Debye-Ang)
        XX     -29.2585     XY       2.2715     YY     -21.5965
        XZ       3.7343     YZ      -0.8806     ZZ     -22.6234

 Total job time:  15.75s(wall), 83.94s(cpu)
        *  Thank you very much for using Q-Chem.  Have a nice day.  *
