 Q-Chem 5.3 (devel), Q-Chem, Inc., Pleasanton, CA (2020)
 Q-Chem 5.3.0 for Intel X86 EM64T Linux

User input:
--------------------------------------------------------------
$rem
   JOBTYPE  sp
   EXCHANGE   omegaB97X-D
   BASIS   6-311+G(2df,2pd)
   UNRESTRICTED   False
   max_scf_cycles   250
   geom_opt_max_cycles   1500
   basis2 6-31G*
   scf_algorithm rca_diis
   SYM_IGNORE  TRUE
   print_input   true
   geom_opt_dmax   80
   pop_mulliken false
   XC_GRID 000075000302
$end

$molecule
0 1
C       -5.5485280808     0.5540979023     -0.0864523831
C       -4.4081281384     1.3791304287     -0.1895493100
H       -5.9299887173     0.0924377021     -0.9880562100
H       -6.2770184500     0.7794531471     0.6808687932
H       -4.4605128614     -0.1881906007     0.4442616461
O       -3.2778666519     0.1563829681     0.6274560944
H       -4.2295867303     2.1747965347     0.5199693935
H       -3.8912425146     1.4928985361     -1.1342485781
H       -2.6578602526     -0.5778693613     0.6986407172
$end
--------------------------------------------------------------

             Standard Nuclear Orientation (Angstroms)
    I     Atom           X                Y                Z
 ----------------------------------------------------------------
    1      C      -5.5485280808     0.5540979023    -0.0864523831
    2      C      -4.4081281384     1.3791304287    -0.1895493100
    3      H      -5.9299887173     0.0924377021    -0.9880562100
    4      H      -6.2770184500     0.7794531471     0.6808687932
    5      H      -4.4605128614    -0.1881906007     0.4442616461
    6      O      -3.2778666519     0.1563829681     0.6274560944
    7      H      -4.2295867303     2.1747965347     0.5199693935
    8      H      -3.8912425146     1.4928985361    -1.1342485781
    9      H      -2.6578602526    -0.5778693613     0.6986407172
 ----------------------------------------------------------------

    7    -154.8453502480      4.02E-05 Convergence criterion met
    9    -154.9244381635      5.32E-06 Convergence criterion met
 Total energy in the final basis set = -154.92443816

                    Orbital Energies (a.u.)
 --------------------------------------------------------------

 Alpha MOs
 -- Occupied --
-19.2202 -10.3548 -10.2613  -1.0688  -0.8775  -0.6997  -0.6062  -0.5698
 -0.5099  -0.4534  -0.4378  -0.3838  -0.3151

                    Cartesian Multipole Moments
 -----------------------------------------------------------------
    Charge (ESU x 10^10)
                -0.0000
    Dipole Moment (Debye)
         X       0.0272      Y       0.1301      Z      -0.8005
       Tot       0.8114
    Quadrupole Moments (Debye-Ang)
        XX     -20.8644     XY      -1.7227     YY     -17.7741
        XZ       2.4707     YZ      -0.5565     ZZ     -20.8544

 Total job time:  14.16s(wall), 75.80s(cpu)
        *  Thank you very much for using Q-Chem.  Have a nice day.  *
