 Q-Chem 5.3 (devel), Q-Chem, Inc., Pleasanton, CA (2020)
 Q-Chem 5.3.0 for Intel X86 EM64T Linux

User input:
--------------------------------------------------------------
$rem
   JOBTYPE  sp
   EXCHANGE   omegaB97X-D
   BASIS   6-311+G(2df,2pd)
   UNRESTRICTED   False
   max_scf_cycles   250
   geom_opt_max_cycles   1500
   basis2 6-31G*
   scf_algorithm rca_diis
   SYM_IGNORE  TRUE
   print_input   true
   geom_opt_dmax   80
   pop_mulliken false
   XC_GRID 000075000302
$end

$molecule
0 1
C       -5.5369100093     0.4844047633     -0.2430135085
C       -4.3814496397     1.2875896977     -0.3508326631
H       -5.6854748199     -0.3000746783     -0.9738023433
H       -6.4322234373     0.9268670955     0.1728060945
H       -4.6513242779     0.0624395614     0.7836850845
O       -3.5463570009     0.5276778887     1.1206477270
H       -3.9598242905     1.5312343263     -1.3158444438
H       -3.6913567760     1.3782031278     0.4787043663
H       -2.7958121458     -0.0352045253     0.9005398497
$end
--------------------------------------------------------------

             Standard Nuclear Orientation (Angstroms)
    I     Atom           X                Y                Z
 ----------------------------------------------------------------
    1      C      -5.5369100093     0.4844047633    -0.2430135085
    2      C      -4.3814496397     1.2875896977    -0.3508326631
    3      H      -5.6854748199    -0.3000746783    -0.9738023433
    4      H      -6.4322234373     0.9268670955     0.1728060945
    5      H      -4.6513242779     0.0624395614     0.7836850845
    6      O      -3.5463570009     0.5276778887     1.1206477270
    7      H      -3.9598242905     1.5312343263    -1.3158444438
    8      H      -3.6913567760     1.3782031278     0.4787043663
    9      H      -2.7958121458    -0.0352045253     0.9005398497
 ----------------------------------------------------------------

    7    -154.7049795078      4.52E-05 Convergence criterion met
    8    -154.7869286963      8.00E-06 Convergence criterion met
 Total energy in the final basis set = -154.78692870

                    Orbital Energies (a.u.)
 --------------------------------------------------------------

 Alpha MOs
 -- Occupied --
-19.2760 -10.2997 -10.2566  -1.1713  -0.8685  -0.7245  -0.6516  -0.5768
 -0.5133  -0.5049  -0.4681  -0.3215  -0.2983

                    Cartesian Multipole Moments
 -----------------------------------------------------------------
    Charge (ESU x 10^10)
                 0.0000
    Dipole Moment (Debye)
         X       1.4738      Y      -1.0514      Z      -0.7400
       Tot       1.9558
    Quadrupole Moments (Debye-Ang)
        XX     -31.2599     XY       3.8899     YY     -22.6593
        XZ       2.7474     YZ      -1.4626     ZZ     -22.6063

 Total job time:  13.24s(wall), 69.39s(cpu)
        *  Thank you very much for using Q-Chem.  Have a nice day.  *
