 Q-Chem 5.3 (devel), Q-Chem, Inc., Pleasanton, CA (2020)
 Q-Chem 5.3.0 for Intel X86 EM64T Linux

User input:
--------------------------------------------------------------
$rem
   JOBTYPE  sp
   EXCHANGE   omegaB97X-D
   BASIS   6-311+G(2df,2pd)
   UNRESTRICTED   False
   max_scf_cycles   250
   geom_opt_max_cycles   1500
   basis2 6-31G*
   scf_algorithm rca_diis
   SYM_IGNORE  TRUE
   print_input   true
   geom_opt_dmax   80
   pop_mulliken false
   XC_GRID 000075000302
$end

$molecule
0 1
C       -5.5156738370     0.4642921339     -0.2533981658
C       -4.3396934442     1.2348477427     -0.3764178553
H       -5.6430087956     -0.3848118720     -0.9124429397
H       -6.4216519896     0.9590744416     0.0701123392
H       -4.6927696766     0.1297461440     0.8544531075
O       -3.5970131366     0.6078559357     1.2032680141
H       -4.1958227487     1.9027837273     -1.2139983711
H       -3.4269908549     0.9348684809     0.1231390118
H       -2.8481079142     0.0144805230     1.0781750226
$end
--------------------------------------------------------------

             Standard Nuclear Orientation (Angstroms)
    I     Atom           X                Y                Z
 ----------------------------------------------------------------
    1      C      -5.5156738370     0.4642921339    -0.2533981658
    2      C      -4.3396934442     1.2348477427    -0.3764178553
    3      H      -5.6430087956    -0.3848118720    -0.9124429397
    4      H      -6.4216519896     0.9590744416     0.0701123392
    5      H      -4.6927696766     0.1297461440     0.8544531075
    6      O      -3.5970131366     0.6078559357     1.2032680141
    7      H      -4.1958227487     1.9027837273    -1.2139983711
    8      H      -3.4269908549     0.9348684809     0.1231390118
    9      H      -2.8481079142     0.0144805230     1.0781750226
 ----------------------------------------------------------------

    9    -154.6466009257      3.40E-05 Convergence criterion met
   10    -154.7295165615      8.54E-06 Convergence criterion met
 Total energy in the final basis set = -154.72951656

                    Orbital Energies (a.u.)
 --------------------------------------------------------------

 Alpha MOs
 -- Occupied --
-19.2706 -10.3100 -10.2592  -1.1654  -0.8666  -0.7082  -0.6449  -0.5728
 -0.5301  -0.5020  -0.4658  -0.3202  -0.2746

                    Cartesian Multipole Moments
 -----------------------------------------------------------------
    Charge (ESU x 10^10)
                 0.0000
    Dipole Moment (Debye)
         X       1.2676      Y      -0.7264      Z      -0.7608
       Tot       1.6472
    Quadrupole Moments (Debye-Ang)
        XX     -30.1042     XY       2.6092     YY     -21.3933
        XZ       3.6461     YZ      -1.5445     ZZ     -22.8771

 Total job time:  18.41s(wall), 98.24s(cpu)
        *  Thank you very much for using Q-Chem.  Have a nice day.  *
