 Q-Chem 5.3 (devel), Q-Chem, Inc., Pleasanton, CA (2020)
 Q-Chem 5.3.0 for Intel X86 EM64T Linux

User input:
--------------------------------------------------------------
$rem
   JOBTYPE  sp
   EXCHANGE   omegaB97X-D
   BASIS   6-311+G(2df,2pd)
   UNRESTRICTED   False
   max_scf_cycles   250
   geom_opt_max_cycles   1500
   basis2 6-31G*
   scf_algorithm rca_diis
   SYM_IGNORE  TRUE
   print_input   true
   geom_opt_dmax   80
   pop_mulliken false
   XC_GRID 000075000302
$end

$molecule
0 1
C       -5.5412617549     0.4885167352     -0.2400115265
C       -4.3893113298     1.2970183904     -0.3456285996
H       -5.6976844473     -0.2802146544     -0.9857432548
H       -6.4320037506     0.9193429248     0.1972898380
H       -4.6409812820     0.0466450143     0.7653099009
O       -3.5327392988     0.5074279970     1.0976078944
H       -3.8879859722     1.4321801559     -1.2936700333
H       -3.7749264117     1.5006804461     0.5224863565
H       -2.7838381501     -0.0484597522     0.8552495878
$end
--------------------------------------------------------------

             Standard Nuclear Orientation (Angstroms)
    I     Atom           X                Y                Z
 ----------------------------------------------------------------
    1      C      -5.5412617549     0.4885167352    -0.2400115265
    2      C      -4.3893113298     1.2970183904    -0.3456285996
    3      H      -5.6976844473    -0.2802146544    -0.9857432548
    4      H      -6.4320037506     0.9193429248     0.1972898380
    5      H      -4.6409812820     0.0466450143     0.7653099009
    6      O      -3.5327392988     0.5074279970     1.0976078944
    7      H      -3.8879859722     1.4321801559    -1.2936700333
    8      H      -3.7749264117     1.5006804461     0.5224863565
    9      H      -2.7838381501    -0.0484597522     0.8552495878
 ----------------------------------------------------------------

    7    -154.7433308016      5.11E-05 Convergence criterion met
    9    -154.8234627661      5.70E-06 Convergence criterion met
 Total energy in the final basis set = -154.82346277

                    Orbital Energies (a.u.)
 --------------------------------------------------------------

 Alpha MOs
 -- Occupied --
-19.2667 -10.3109 -10.2566  -1.1486  -0.8698  -0.7165  -0.6478  -0.5680
 -0.5102  -0.4956  -0.4667  -0.3258  -0.3153

                    Cartesian Multipole Moments
 -----------------------------------------------------------------
    Charge (ESU x 10^10)
                 0.0000
    Dipole Moment (Debye)
         X       1.3598      Y      -0.8504      Z      -0.9360
       Tot       1.8570
    Quadrupole Moments (Debye-Ang)
        XX     -30.5556     XY       3.1601     YY     -22.1783
        XZ       3.2461     YZ      -1.1771     ZZ     -22.5538

 Total job time:  16.39s(wall), 87.98s(cpu)
        *  Thank you very much for using Q-Chem.  Have a nice day.  *
