 Q-Chem 5.3 (devel), Q-Chem, Inc., Pleasanton, CA (2020)
 Q-Chem 5.3.0 for Intel X86 EM64T Linux

User input:
--------------------------------------------------------------
$rem
   JOBTYPE  sp
   EXCHANGE   omegaB97X-D
   BASIS   6-311+G(2df,2pd)
   UNRESTRICTED   False
   max_scf_cycles   250
   geom_opt_max_cycles   1500
   basis2 6-31G*
   scf_algorithm rca_diis
   SYM_IGNORE  TRUE
   print_input   true
   geom_opt_dmax   80
   pop_mulliken false
   XC_GRID 000075000302
$end

$molecule
0 1
C       -5.5552596432     0.5084389133     -0.2165037390
C       -4.4112150368     1.3297440110     -0.3083707590
H       -5.7714682237     -0.1625084312     -1.0378534387
H       -6.4081568171     0.8769985216     0.3375677527
H       -4.5828349300     -0.0502230136     0.6545380216
O       -3.4504744006     0.3714404106     0.9560389256
H       -3.5020249067     0.9698691051     -0.7690677708
H       -4.2746237310     2.1655361125     0.3664366326
H       -2.7246747083     -0.1461583721     0.5901045383
$end
--------------------------------------------------------------

             Standard Nuclear Orientation (Angstroms)
    I     Atom           X                Y                Z
 ----------------------------------------------------------------
    1      C      -5.5552596432     0.5084389133    -0.2165037390
    2      C      -4.4112150368     1.3297440110    -0.3083707590
    3      H      -5.7714682237    -0.1625084312    -1.0378534387
    4      H      -6.4081568171     0.8769985216     0.3375677527
    5      H      -4.5828349300    -0.0502230136     0.6545380216
    6      O      -3.4504744006     0.3714404106     0.9560389256
    7      H      -3.5020249067     0.9698691051    -0.7690677708
    8      H      -4.2746237310     2.1655361125     0.3664366326
    9      H      -2.7246747083    -0.1461583721     0.5901045383
 ----------------------------------------------------------------

    7    -154.8346657395      4.23E-05 Convergence criterion met
    8    -154.9109482791      3.27E-06 Convergence criterion met
 Total energy in the final basis set = -154.91094828

                    Orbital Energies (a.u.)
 --------------------------------------------------------------

 Alpha MOs
 -- Occupied --
-19.2326 -10.3475 -10.2628  -1.0904  -0.8756  -0.7018  -0.6033  -0.5752
 -0.5129  -0.4711  -0.4341  -0.4014  -0.3096

                    Cartesian Multipole Moments
 -----------------------------------------------------------------
    Charge (ESU x 10^10)
                 0.0000
    Dipole Moment (Debye)
         X       0.5949      Y      -0.0235      Z      -1.4181
       Tot       1.5380
    Quadrupole Moments (Debye-Ang)
        XX     -24.4252     XY      -0.7547     YY     -19.3445
        XZ       3.7899     YZ       0.2270     ZZ     -23.6546

 Total job time:  15.19s(wall), 80.91s(cpu)
        *  Thank you very much for using Q-Chem.  Have a nice day.  *
