 Q-Chem 5.3 (devel), Q-Chem, Inc., Pleasanton, CA (2020)
 Q-Chem 5.3.0 for Intel X86 EM64T Linux

User input:
--------------------------------------------------------------
$rem
   JOBTYPE  sp
   EXCHANGE   omegaB97X-D
   BASIS   6-311+G(2df,2pd)
   UNRESTRICTED   False
   max_scf_cycles   250
   geom_opt_max_cycles   1500
   basis2 6-31G*
   scf_algorithm rca_diis
   SYM_IGNORE  TRUE
   print_input   true
   geom_opt_dmax   80
   pop_mulliken false
   XC_GRID 000075000302
$end

$molecule
0 1
C       -5.5432594919     0.5497359451     -0.0861030759
C       -4.3974331235     1.3641320367     -0.2112454510
H       -6.0184842344     0.1917112544     -0.9902665475
H       -6.1911693665     0.7033847741     0.7664635337
H       -4.4291273704     -0.2604939187     0.2583731991
O       -3.2263984760     0.0452852567     0.3627068438
H       -4.1338581059     2.0775636824     0.5568182665
H       -3.9683189660     1.5695508188     -1.1839914616
H       -2.7726832627     -0.3777325924     1.1001348563
$end
--------------------------------------------------------------

             Standard Nuclear Orientation (Angstroms)
    I     Atom           X                Y                Z
 ----------------------------------------------------------------
    1      C      -5.5432594919     0.5497359451    -0.0861030759
    2      C      -4.3974331235     1.3641320367    -0.2112454510
    3      H      -6.0184842344     0.1917112544    -0.9902665475
    4      H      -6.1911693665     0.7033847741     0.7664635337
    5      H      -4.4291273704    -0.2604939187     0.2583731991
    6      O      -3.2263984760     0.0452852567     0.3627068438
    7      H      -4.1338581059     2.0775636824     0.5568182665
    8      H      -3.9683189660     1.5695508188    -1.1839914616
    9      H      -2.7726832627    -0.3777325924     1.1001348563
 ----------------------------------------------------------------

    7    -154.8486777674      3.88E-05 Convergence criterion met
    7    -154.9268318712      7.83E-06 Convergence criterion met
 Total energy in the final basis set = -154.92683187

                    Orbital Energies (a.u.)
 --------------------------------------------------------------

 Alpha MOs
 -- Occupied --
-19.2243 -10.3547 -10.2599  -1.0726  -0.8770  -0.6992  -0.6067  -0.5699
 -0.5101  -0.4526  -0.4402  -0.3924  -0.3116

                    Cartesian Multipole Moments
 -----------------------------------------------------------------
    Charge (ESU x 10^10)
                -0.0000
    Dipole Moment (Debye)
         X      -0.2182      Y       0.7585      Z       0.6457
       Tot       1.0197
    Quadrupole Moments (Debye-Ang)
        XX     -20.0608     XY      -3.0297     YY     -18.7043
        XZ      -1.3745     YZ      -0.8998     ZZ     -17.9366

 Total job time:  13.39s(wall), 69.44s(cpu)
        *  Thank you very much for using Q-Chem.  Have a nice day.  *
