 Q-Chem 5.3 (devel), Q-Chem, Inc., Pleasanton, CA (2020)
 Q-Chem 5.3.0 for Intel X86 EM64T Linux

User input:
--------------------------------------------------------------
$rem
   JOBTYPE  sp
   EXCHANGE   omegaB97X-D
   BASIS   6-311+G(2df,2pd)
   UNRESTRICTED   False
   max_scf_cycles   250
   geom_opt_max_cycles   1500
   basis2 6-31G*
   scf_algorithm rca_diis
   SYM_IGNORE  TRUE
   print_input   true
   geom_opt_dmax   80
   pop_mulliken false
   XC_GRID 000075000302
$end

$molecule
0 1
C       -5.5469665657     0.5535505638     -0.0871805496
C       -4.4108544797     1.3822905079     -0.2065920547
H       -5.9756438948     0.1387377142     -0.9903404833
H       -6.2343888656     0.7397013666     0.7271065325
H       -4.4353977362     -0.2153545246     0.3482806109
O       -3.2438562270     0.1189038431     0.4877201409
H       -4.1936746897     2.1405764426     0.5324707013
H       -3.9428326504     1.5439755349     -1.1695999243
H       -2.6971172882     -0.5392441914     0.9310251897
$end
--------------------------------------------------------------

             Standard Nuclear Orientation (Angstroms)
    I     Atom           X                Y                Z
 ----------------------------------------------------------------
    1      C      -5.5469665657     0.5535505638    -0.0871805496
    2      C      -4.4108544797     1.3822905079    -0.2065920547
    3      H      -5.9756438948     0.1387377142    -0.9903404833
    4      H      -6.2343888656     0.7397013666     0.7271065325
    5      H      -4.4353977362    -0.2153545246     0.3482806109
    6      O      -3.2438562270     0.1189038431     0.4877201409
    7      H      -4.1936746897     2.1405764426     0.5324707013
    8      H      -3.9428326504     1.5439755349    -1.1695999243
    9      H      -2.6971172882    -0.5392441914     0.9310251897
 ----------------------------------------------------------------

    7    -154.8398024341      4.42E-05 Convergence criterion met
    8    -154.9199393603      3.22E-06 Convergence criterion met
 Total energy in the final basis set = -154.91993936

                    Orbital Energies (a.u.)
 --------------------------------------------------------------

 Alpha MOs
 -- Occupied --
-19.2142 -10.3556 -10.2638  -1.0641  -0.8783  -0.7009  -0.6045  -0.5707
 -0.5111  -0.4541  -0.4370  -0.3718  -0.3185

                    Cartesian Multipole Moments
 -----------------------------------------------------------------
    Charge (ESU x 10^10)
                 0.0000
    Dipole Moment (Debye)
         X      -0.2702      Y       0.3437      Z      -0.0402
       Tot       0.4390
    Quadrupole Moments (Debye-Ang)
        XX     -18.8726     XY      -2.1575     YY     -17.9785
        XZ       0.5066     YZ      -0.9754     ZZ     -19.3268

 Total job time:  14.53s(wall), 76.49s(cpu)
        *  Thank you very much for using Q-Chem.  Have a nice day.  *
