 Q-Chem 5.3 (devel), Q-Chem, Inc., Pleasanton, CA (2020)
 Q-Chem 5.3.0 for Intel X86 EM64T Linux

User input:
--------------------------------------------------------------
$rem
   JOBTYPE  sp
   EXCHANGE   omegaB97X-D
   BASIS   6-311+G(2df,2pd)
   UNRESTRICTED   False
   max_scf_cycles   250
   geom_opt_max_cycles   1500
   basis2 6-31G*
   scf_algorithm rca_diis
   SYM_IGNORE  TRUE
   print_input   true
   geom_opt_dmax   80
   pop_mulliken false
   XC_GRID 000075000302
$end

$molecule
0 1
C       -5.5459290992     0.5526111455     -0.0870406829
C       -4.4080829000     1.3784885881     -0.2097278923
H       -5.9907575409     0.1558837066     -0.9905155387
H       -6.2195006114     0.7270831734     0.7412864997
H       -4.4311172412     -0.2287213402     0.3168662227
O       -3.2360022637     0.0978837324     0.4432486743
H       -4.1757571641     2.1224757298     0.5391955100
H       -3.9546523004     1.5553966035     -1.1770307833
H       -2.7189332764     -0.4979640820     0.9966081538
$end
--------------------------------------------------------------

             Standard Nuclear Orientation (Angstroms)
    I     Atom           X                Y                Z
 ----------------------------------------------------------------
    1      C      -5.5459290992     0.5526111455    -0.0870406829
    2      C      -4.4080829000     1.3784885881    -0.2097278923
    3      H      -5.9907575409     0.1558837066    -0.9905155387
    4      H      -6.2195006114     0.7270831734     0.7412864997
    5      H      -4.4311172412    -0.2287213402     0.3168662227
    6      O      -3.2360022637     0.0978837324     0.4432486743
    7      H      -4.1757571641     2.1224757298     0.5391955100
    8      H      -3.9546523004     1.5553966035    -1.1770307833
    9      H      -2.7189332764    -0.4979640820     0.9966081538
 ----------------------------------------------------------------

    7    -154.8414395790      4.26E-05 Convergence criterion met
    8    -154.9211740942      3.02E-06 Convergence criterion met
 Total energy in the final basis set = -154.92117409

                    Orbital Energies (a.u.)
 --------------------------------------------------------------

 Alpha MOs
 -- Occupied --
-19.2160 -10.3554 -10.2630  -1.0657  -0.8780  -0.7005  -0.6049  -0.5706
 -0.5110  -0.4538  -0.4377  -0.3759  -0.3168

                    Cartesian Multipole Moments
 -----------------------------------------------------------------
    Charge (ESU x 10^10)
                -0.0000
    Dipole Moment (Debye)
         X      -0.2863      Y       0.4660      Z       0.2145
       Tot       0.5875
    Quadrupole Moments (Debye-Ang)
        XX     -18.9806     XY      -2.4113     YY     -18.1834
        XZ      -0.1809     YZ      -1.0145     ZZ     -18.8107

 Total job time:  14.48s(wall), 76.22s(cpu)
        *  Thank you very much for using Q-Chem.  Have a nice day.  *
