 Q-Chem 5.3 (devel), Q-Chem, Inc., Pleasanton, CA (2020)
 Q-Chem 5.3.0 for Intel X86 EM64T Linux

User input:
--------------------------------------------------------------
$rem
   JOBTYPE  sp
   EXCHANGE   omegaB97X-D
   BASIS   6-311+G(2df,2pd)
   UNRESTRICTED   False
   max_scf_cycles   250
   geom_opt_max_cycles   1500
   basis2 6-31G*
   scf_algorithm rca_diis
   SYM_IGNORE  TRUE
   print_input   true
   geom_opt_dmax   80
   pop_mulliken false
   XC_GRID 000075000302
$end

$molecule
0 1
C       -5.5293967101     0.5281072354     -0.0723164090
C       -4.2928522179     1.2079832067     -0.0489485445
H       -5.9929007461     0.3407593670     -1.0323146398
H       -6.2005939045     0.6552047201     0.7664955768
H       -4.5355179922     -0.4455485250     0.2116312530
O       -3.3131117507     -0.3012524920     0.4009585951
H       -3.9912859355     1.7873293983     0.8123261763
H       -3.7911228765     1.4754422055     -0.9705254481
H       -3.0339502638     0.6151121412     0.5055836034
$end
--------------------------------------------------------------

             Standard Nuclear Orientation (Angstroms)
    I     Atom           X                Y                Z
 ----------------------------------------------------------------
    1      C      -5.5293967101     0.5281072354    -0.0723164090
    2      C      -4.2928522179     1.2079832067    -0.0489485445
    3      H      -5.9929007461     0.3407593670    -1.0323146398
    4      H      -6.2005939045     0.6552047201     0.7664955768
    5      H      -4.5355179922    -0.4455485250     0.2116312530
    6      O      -3.3131117507    -0.3012524920     0.4009585951
    7      H      -3.9912859355     1.7873293983     0.8123261763
    8      H      -3.7911228765     1.4754422055    -0.9705254481
    9      H      -3.0339502638     0.6151121412     0.5055836034
 ----------------------------------------------------------------

    7    -154.7935628487      5.78E-05 Convergence criterion met
    8    -154.8762344871      4.81E-06 Convergence criterion met
 Total energy in the final basis set = -154.87623449

                    Orbital Energies (a.u.)
 --------------------------------------------------------------

 Alpha MOs
 -- Occupied --
-19.2221 -10.3851 -10.2664  -1.1025  -0.8825  -0.7386  -0.6060  -0.5884
 -0.5156  -0.4906  -0.4676  -0.3804  -0.3011

                    Cartesian Multipole Moments
 -----------------------------------------------------------------
    Charge (ESU x 10^10)
                -0.0000
    Dipole Moment (Debye)
         X      -0.5270      Y       2.7995      Z      -0.3657
       Tot       2.8720
    Quadrupole Moments (Debye-Ang)
        XX     -18.1148     XY      -8.3559     YY     -18.6709
        XZ       0.9854     YZ       1.1435     ZZ     -19.9280

 Total job time:  16.91s(wall), 85.40s(cpu)
        *  Thank you very much for using Q-Chem.  Have a nice day.  *
