 Q-Chem 5.3 (devel), Q-Chem, Inc., Pleasanton, CA (2020)
 Q-Chem 5.3.0 for Intel X86 EM64T Linux

User input:
--------------------------------------------------------------
$rem
   JOBTYPE  sp
   EXCHANGE   omegaB97X-D
   BASIS   6-311+G(2df,2pd)
   UNRESTRICTED   False
   max_scf_cycles   250
   geom_opt_max_cycles   1500
   basis2 6-31G*
   scf_algorithm rca_diis
   SYM_IGNORE  TRUE
   print_input   true
   geom_opt_dmax   80
   pop_mulliken false
   XC_GRID 000075000302
$end

$molecule
0 1
C       -5.5445354282     0.5381634076     -0.0726015813
C       -4.3979057692     1.3491648026     0.0664553742
H       -5.8928679694     0.3105478014     -1.0717949535
H       -6.3010709578     0.5827570569     0.6993636969
H       -4.4804997172     -0.3234658245     0.3040279344
O       -3.3044573625     -0.0479646809     0.6072880650
H       -4.2437080116     1.9496221094     0.9519227375
H       -3.8447289770     1.6789745728     -0.8040568828
H       -2.6709582043     -0.1746619882     -0.1077142272
$end
--------------------------------------------------------------

             Standard Nuclear Orientation (Angstroms)
    I     Atom           X                Y                Z
 ----------------------------------------------------------------
    1      C      -5.5445354282     0.5381634076    -0.0726015813
    2      C      -4.3979057692     1.3491648026     0.0664553742
    3      H      -5.8928679694     0.3105478014    -1.0717949535
    4      H      -6.3010709578     0.5827570569     0.6993636969
    5      H      -4.4804997172    -0.3234658245     0.3040279344
    6      O      -3.3044573625    -0.0479646809     0.6072880650
    7      H      -4.2437080116     1.9496221094     0.9519227375
    8      H      -3.8447289770     1.6789745728    -0.8040568828
    9      H      -2.6709582043    -0.1746619882    -0.1077142272
 ----------------------------------------------------------------

    7    -154.8613825257      4.29E-05 Convergence criterion met
    7    -154.9365249808      7.41E-06 Convergence criterion met
 Total energy in the final basis set = -154.93652498

                    Orbital Energies (a.u.)
 --------------------------------------------------------------

 Alpha MOs
 -- Occupied --
-19.2444 -10.3550 -10.2542  -1.0912  -0.8741  -0.6984  -0.6113  -0.5702
 -0.5060  -0.4607  -0.4430  -0.4285  -0.3041

                    Cartesian Multipole Moments
 -----------------------------------------------------------------
    Charge (ESU x 10^10)
                -0.0000
    Dipole Moment (Debye)
         X       0.4913      Y       1.1361      Z      -1.4917
       Tot       1.9384
    Quadrupole Moments (Debye-Ang)
        XX     -24.9167     XY      -4.1279     YY     -19.2984
        XZ       3.3310     YZ       0.8990     ZZ     -20.7828

 Total job time:  14.73s(wall), 77.48s(cpu)
        *  Thank you very much for using Q-Chem.  Have a nice day.  *
