 Q-Chem 5.3 (devel), Q-Chem, Inc., Pleasanton, CA (2020)
 Q-Chem 5.3.0 for Intel X86 EM64T Linux

User input:
--------------------------------------------------------------
$rem
   JOBTYPE  sp
   EXCHANGE   omegaB97X-D
   BASIS   6-311+G(2df,2pd)
   UNRESTRICTED   False
   max_scf_cycles   250
   geom_opt_max_cycles   1500
   basis2 6-31G*
   scf_algorithm rca_diis
   SYM_IGNORE  TRUE
   print_input   true
   geom_opt_dmax   80
   pop_mulliken false
   XC_GRID 000075000302
$end

$molecule
0 1
C       -5.5328830297     0.5286198272     -0.0721249965
C       -4.3113093402     1.2292598705     0.0210464886
H       -5.9318115344     0.3233004391     -1.0571284561
H       -6.2576348202     0.6534571641     0.7212320942
H       -4.5434673704     -0.4252114072     0.2852114692
O       -3.3379132638     -0.2585068539     0.5493934046
H       -4.0740116431     1.8227404529     0.8927396562
H       -3.7567507052     1.4951863513     -0.8701989684
H       -2.9349506902     0.4942914131     0.1027194715
$end
--------------------------------------------------------------

             Standard Nuclear Orientation (Angstroms)
    I     Atom           X                Y                Z
 ----------------------------------------------------------------
    1      C      -5.5328830297     0.5286198272    -0.0721249965
    2      C      -4.3113093402     1.2292598705     0.0210464886
    3      H      -5.9318115344     0.3233004391    -1.0571284561
    4      H      -6.2576348202     0.6534571641     0.7212320942
    5      H      -4.5434673704    -0.4252114072     0.2852114692
    6      O      -3.3379132638    -0.2585068539     0.5493934046
    7      H      -4.0740116431     1.8227404529     0.8927396562
    8      H      -3.7567507052     1.4951863513    -0.8701989684
    9      H      -2.9349506902     0.4942914131     0.1027194715
 ----------------------------------------------------------------

    7    -154.8032352931      5.85E-05 Convergence criterion met
    8    -154.8845871382      4.12E-06 Convergence criterion met
 Total energy in the final basis set = -154.88458714

                    Orbital Energies (a.u.)
 --------------------------------------------------------------

 Alpha MOs
 -- Occupied --
-19.2261 -10.3811 -10.2645  -1.1013  -0.8811  -0.7324  -0.6043  -0.5876
 -0.5147  -0.4888  -0.4658  -0.3857  -0.3013

                    Cartesian Multipole Moments
 -----------------------------------------------------------------
    Charge (ESU x 10^10)
                -0.0000
    Dipole Moment (Debye)
         X      -0.2676      Y       2.5356      Z      -1.1105
       Tot       2.7810
    Quadrupole Moments (Debye-Ang)
        XX     -19.6395     XY      -7.6329     YY     -18.9454
        XZ       2.5910     YZ       0.7378     ZZ     -20.6711

 Total job time:  13.92s(wall), 73.69s(cpu)
        *  Thank you very much for using Q-Chem.  Have a nice day.  *
