 Q-Chem 5.3 (devel), Q-Chem, Inc., Pleasanton, CA (2020)
 Q-Chem 5.3.0 for Intel X86 EM64T Linux

User input:
--------------------------------------------------------------
$rem
   JOBTYPE  sp
   EXCHANGE   omegaB97X-D
   BASIS   6-311+G(2df,2pd)
   UNRESTRICTED   False
   max_scf_cycles   250
   geom_opt_max_cycles   1500
   basis2 6-31G*
   scf_algorithm rca_diis
   SYM_IGNORE  TRUE
   print_input   true
   geom_opt_dmax   80
   pop_mulliken false
   XC_GRID 000075000302
$end

$molecule
0 1
C       -5.4810614733     0.4189328028     -0.2693946364
C       -4.2639074352     1.1138157883     -0.4352058504
H       -5.6055774002     -0.5258318150     -0.7826659284
H       -6.3814795669     0.9944237798     -0.1011020814
H       -4.7495095637     0.2507039811     0.9359922671
O       -3.6572643172     0.7418667189     1.2776100266
H       -4.2513993862     2.1731741087     -0.6496396980
H       -3.3594015313     0.5868854767     -0.7123053881
H       -2.9311317233     0.1091664158     1.3096014524
$end
--------------------------------------------------------------

             Standard Nuclear Orientation (Angstroms)
    I     Atom           X                Y                Z
 ----------------------------------------------------------------
    1      C      -5.4810614733     0.4189328028    -0.2693946364
    2      C      -4.2639074352     1.1138157883    -0.4352058504
    3      H      -5.6055774002    -0.5258318150    -0.7826659284
    4      H      -6.3814795669     0.9944237798    -0.1011020814
    5      H      -4.7495095637     0.2507039811     0.9359922671
    6      O      -3.6572643172     0.7418667189     1.2776100266
    7      H      -4.2513993862     2.1731741087    -0.6496396980
    8      H      -3.3594015313     0.5868854767    -0.7123053881
    9      H      -2.9311317233     0.1091664158     1.3096014524
 ----------------------------------------------------------------

    7    -154.8492379616      4.11E-05 Convergence criterion met
    7    -154.9249432076      7.86E-06 Convergence criterion met
 Total energy in the final basis set = -154.92494321

                    Orbital Energies (a.u.)
 --------------------------------------------------------------

 Alpha MOs
 -- Occupied --
-19.2417 -10.3544 -10.2551  -1.0900  -0.8745  -0.6984  -0.6101  -0.5733
 -0.5065  -0.4671  -0.4450  -0.4079  -0.3054

                    Cartesian Multipole Moments
 -----------------------------------------------------------------
    Charge (ESU x 10^10)
                 0.0000
    Dipole Moment (Debye)
         X       1.0231      Y      -0.5287      Z      -1.4185
       Tot       1.8271
    Quadrupole Moments (Debye-Ang)
        XX     -28.0071     XY       0.8185     YY     -19.7746
        XZ       5.6670     YZ      -2.8925     ZZ     -23.7916

 Total job time:  12.76s(wall), 67.11s(cpu)
        *  Thank you very much for using Q-Chem.  Have a nice day.  *
