 Q-Chem 5.3 (devel), Q-Chem, Inc., Pleasanton, CA (2020)
 Q-Chem 5.3.0 for Intel X86 EM64T Linux

User input:
--------------------------------------------------------------
$rem
   JOBTYPE  sp
   EXCHANGE   omegaB97X-D
   BASIS   6-311+G(2df,2pd)
   UNRESTRICTED   False
   max_scf_cycles   250
   geom_opt_max_cycles   1500
   basis2 6-31G*
   scf_algorithm rca_diis
   SYM_IGNORE  TRUE
   print_input   true
   geom_opt_dmax   80
   pop_mulliken false
   XC_GRID 000075000302
$end

$molecule
0 1
C       -5.5411931364     0.5346520836     -0.0724607110
C       -4.3712219588     1.3120348009     0.0641527181
H       -5.8907799250     0.3062920313     -1.0710460014
H       -6.3002603157     0.6110032120     0.6945155041
H       -4.5059312161     -0.3544932099     0.3200697002
O       -3.3237440386     -0.1113429860     0.6270789067
H       -4.2037171792     1.9176286303     0.9436847753
H       -3.8034923993     1.6149318063     -0.8067704638
H       -2.7403922282     0.0324308888     -0.1263342650
$end
--------------------------------------------------------------

             Standard Nuclear Orientation (Angstroms)
    I     Atom           X                Y                Z
 ----------------------------------------------------------------
    1      C      -5.5411931364     0.5346520836    -0.0724607110
    2      C      -4.3712219588     1.3120348009     0.0641527181
    3      H      -5.8907799250     0.3062920313    -1.0710460014
    4      H      -6.3002603157     0.6110032120     0.6945155041
    5      H      -4.5059312161    -0.3544932099     0.3200697002
    6      O      -3.3237440386    -0.1113429860     0.6270789067
    7      H      -4.2037171792     1.9176286303     0.9436847753
    8      H      -3.8034923993     1.6149318063    -0.8067704638
    9      H      -2.7403922282     0.0324308888    -0.1263342650
 ----------------------------------------------------------------

    7    -154.8530283342      4.83E-05 Convergence criterion met
    7    -154.9286695997      9.35E-06 Convergence criterion met
 Total energy in the final basis set = -154.92866960

                    Orbital Energies (a.u.)
 --------------------------------------------------------------

 Alpha MOs
 -- Occupied --
-19.2449 -10.3592 -10.2555  -1.0957  -0.8746  -0.7031  -0.6110  -0.5733
 -0.5070  -0.4699  -0.4503  -0.4218  -0.3029

                    Cartesian Multipole Moments
 -----------------------------------------------------------------
    Charge (ESU x 10^10)
                 0.0000
    Dipole Moment (Debye)
         X       0.3968      Y       1.5250      Z      -1.4920
       Tot       2.1700
    Quadrupole Moments (Debye-Ang)
        XX     -24.3915     XY      -4.9928     YY     -19.5396
        XZ       3.2965     YZ       0.8088     ZZ     -20.7282

 Total job time:  14.89s(wall), 78.23s(cpu)
        *  Thank you very much for using Q-Chem.  Have a nice day.  *
