 Q-Chem 5.3 (devel), Q-Chem, Inc., Pleasanton, CA (2020)
 Q-Chem 5.3.0 for Intel X86 EM64T Linux

User input:
--------------------------------------------------------------
$rem
   JOBTYPE  sp
   EXCHANGE   omegaB97X-D
   BASIS   6-311+G(2df,2pd)
   UNRESTRICTED   False
   max_scf_cycles   250
   geom_opt_max_cycles   1500
   basis2 6-31G*
   scf_algorithm rca_diis
   SYM_IGNORE  TRUE
   print_input   true
   geom_opt_dmax   80
   pop_mulliken false
   XC_GRID 000075000302
$end

$molecule
0 1
C       -5.5415863456     0.5347213571     -0.1167898405
C       -4.3982876242     1.3595745939     -0.0511785151
H       -5.8672064328     0.1868978011     -1.0886551352
H       -6.3154244711     0.6704826707     0.6268555141
H       -4.4864880120     -0.2721966377     0.3852834372
O       -3.3175844403     0.0410549251     0.6793601373
H       -3.9067558103     1.5573380235     0.8909809613
H       -4.1961848677     2.0876347640     -0.8268417809
H       -2.6512143934     -0.3023702405     0.0738753851
$end
--------------------------------------------------------------

             Standard Nuclear Orientation (Angstroms)
    I     Atom           X                Y                Z
 ----------------------------------------------------------------
    1      C      -5.5415863456     0.5347213571    -0.1167898405
    2      C      -4.3982876242     1.3595745939    -0.0511785151
    3      H      -5.8672064328     0.1868978011    -1.0886551352
    4      H      -6.3154244711     0.6704826707     0.6268555141
    5      H      -4.4864880120    -0.2721966377     0.3852834372
    6      O      -3.3175844403     0.0410549251     0.6793601373
    7      H      -3.9067558103     1.5573380235     0.8909809613
    8      H      -4.1961848677     2.0876347640    -0.8268417809
    9      H      -2.6512143934    -0.3023702405     0.0738753851
 ----------------------------------------------------------------

    7    -154.8095383598      4.90E-05 Convergence criterion met
    8    -154.8857825162      2.51E-06 Convergence criterion met
 Total energy in the final basis set = -154.88578252

                    Orbital Energies (a.u.)
 --------------------------------------------------------------

 Alpha MOs
 -- Occupied --
-19.2481 -10.3440 -10.2537  -1.1003  -0.8724  -0.6985  -0.6314  -0.5494
 -0.5070  -0.4763  -0.4550  -0.3819  -0.3036

                    Cartesian Multipole Moments
 -----------------------------------------------------------------
    Charge (ESU x 10^10)
                 0.0000
    Dipole Moment (Debye)
         X       0.6385      Y       0.6575      Z      -1.4131
       Tot       1.6843
    Quadrupole Moments (Debye-Ang)
        XX     -25.7753     XY      -2.9399     YY     -19.2071
        XZ       3.8765     YZ       0.0746     ZZ     -21.4600

 Total job time:  14.04s(wall), 74.17s(cpu)
        *  Thank you very much for using Q-Chem.  Have a nice day.  *
