 Q-Chem 5.3 (devel), Q-Chem, Inc., Pleasanton, CA (2020)
 Q-Chem 5.3.0 for Intel X86 EM64T Linux

User input:
--------------------------------------------------------------
$rem
   JOBTYPE  sp
   EXCHANGE   omegaB97X-D
   BASIS   6-311+G(2df,2pd)
   UNRESTRICTED   False
   max_scf_cycles   250
   geom_opt_max_cycles   1500
   basis2 6-31G*
   scf_algorithm rca_diis
   SYM_IGNORE  TRUE
   print_input   true
   geom_opt_dmax   80
   pop_mulliken false
   XC_GRID 000075000302
$end

$molecule
0 1
C       -5.4921345134     0.4361820052     -0.2633737829
C       -4.2890600864     1.1586813921     -0.4131276934
H       -5.6145284887     -0.4780282398     -0.8297404142
H       -6.3967230467     0.9864309599     -0.0415390128
H       -4.7315347611     0.2076278669     0.9137743569
O       -3.6390853568     0.6944985366     1.2608398508
H       -4.2798814312     2.1375285486     -0.8715514859
H       -3.3343519184     0.6477687060     -0.4215644441
H       -2.9034327946     0.0724474816     1.2391727890
$end
--------------------------------------------------------------

             Standard Nuclear Orientation (Angstroms)
    I     Atom           X                Y                Z
 ----------------------------------------------------------------
    1      C      -5.4921345134     0.4361820052    -0.2633737829
    2      C      -4.2890600864     1.1586813921    -0.4131276934
    3      H      -5.6145284887    -0.4780282398    -0.8297404142
    4      H      -6.3967230467     0.9864309599    -0.0415390128
    5      H      -4.7315347611     0.2076278669     0.9137743569
    6      O      -3.6390853568     0.6944985366     1.2608398508
    7      H      -4.2798814312     2.1375285486    -0.8715514859
    8      H      -3.3343519184     0.6477687060    -0.4215644441
    9      H      -2.9034327946     0.0724474816     1.2391727890
 ----------------------------------------------------------------

    7    -154.8091378412      4.66E-05 Convergence criterion met
    8    -154.8857534320      3.35E-06 Convergence criterion met
 Total energy in the final basis set = -154.88575343

                    Orbital Energies (a.u.)
 --------------------------------------------------------------

 Alpha MOs
 -- Occupied --
-19.2444 -10.3505 -10.2561  -1.0993  -0.8738  -0.6995  -0.6182  -0.5696
 -0.5088  -0.4816  -0.4515  -0.3753  -0.3064

                    Cartesian Multipole Moments
 -----------------------------------------------------------------
    Charge (ESU x 10^10)
                 0.0000
    Dipole Moment (Debye)
         X       0.9994      Y      -0.4691      Z      -1.4252
       Tot       1.8028
    Quadrupole Moments (Debye-Ang)
        XX     -27.7106     XY       0.6220     YY     -19.8472
        XZ       5.8994     YZ      -2.9005     ZZ     -23.8826

 Total job time:  15.48s(wall), 82.07s(cpu)
        *  Thank you very much for using Q-Chem.  Have a nice day.  *
