 Q-Chem 5.3 (devel), Q-Chem, Inc., Pleasanton, CA (2020)
 Q-Chem 5.3.0 for Intel X86 EM64T Linux

User input:
--------------------------------------------------------------
$rem
   JOBTYPE  sp
   EXCHANGE   omegaB97X-D
   BASIS   6-311+G(2df,2pd)
   UNRESTRICTED   False
   max_scf_cycles   250
   geom_opt_max_cycles   1500
   basis2 6-31G*
   scf_algorithm rca_diis
   SYM_IGNORE  TRUE
   print_input   true
   geom_opt_dmax   80
   pop_mulliken false
   XC_GRID 000075000302
$end

$molecule
0 1
C       -5.5292029078     0.5286188078     -0.0727073678
C       -4.2939799752     1.2112810199     -0.0686718194
H       -6.0078428054     0.3412951855     -1.0252542314
H       -6.1869470647     0.6532455432     0.7770607139
H       -4.5286396405     -0.4430905515     0.1939024399
O       -3.3036433455     -0.2962252134     0.3634838558
H       -3.9797474388     1.7903440211     0.7882542747
H       -3.8079183552     1.4809167433     -0.9979787201
H       -3.0428108640     0.5967517010     0.6148010178
$end
--------------------------------------------------------------

             Standard Nuclear Orientation (Angstroms)
    I     Atom           X                Y                Z
 ----------------------------------------------------------------
    1      C      -5.5292029078     0.5286188078    -0.0727073678
    2      C      -4.2939799752     1.2112810199    -0.0686718194
    3      H      -6.0078428054     0.3412951855    -1.0252542314
    4      H      -6.1869470647     0.6532455432     0.7770607139
    5      H      -4.5286396405    -0.4430905515     0.1939024399
    6      O      -3.3036433455    -0.2962252134     0.3634838558
    7      H      -3.9797474388     1.7903440211     0.7882542747
    8      H      -3.8079183552     1.4809167433    -0.9979787201
    9      H      -3.0428108640     0.5967517010     0.6148010178
 ----------------------------------------------------------------

    7    -154.8013584297      5.86E-05 Convergence criterion met
    8    -154.8829913204      4.00E-06 Convergence criterion met
 Total energy in the final basis set = -154.88299132

                    Orbital Energies (a.u.)
 --------------------------------------------------------------

 Alpha MOs
 -- Occupied --
-19.2255 -10.3821 -10.2650  -1.1016  -0.8815  -0.7340  -0.6091  -0.5850
 -0.5140  -0.4889  -0.4653  -0.3862  -0.3014

                    Cartesian Multipole Moments
 -----------------------------------------------------------------
    Charge (ESU x 10^10)
                -0.0000
    Dipole Moment (Debye)
         X      -0.4898      Y       2.7319      Z      -0.1488
       Tot       2.7795
    Quadrupole Moments (Debye-Ang)
        XX     -18.5600     XY      -8.1400     YY     -18.7859
        XZ       0.4630     YZ       1.2179     ZZ     -19.6022

 Total job time:  15.99s(wall), 84.45s(cpu)
        *  Thank you very much for using Q-Chem.  Have a nice day.  *
