 Q-Chem 5.3 (devel), Q-Chem, Inc., Pleasanton, CA (2020)
 Q-Chem 5.3.0 for Intel X86 EM64T Linux

User input:
--------------------------------------------------------------
$rem
   JOBTYPE  sp
   EXCHANGE   omegaB97X-D
   BASIS   6-311+G(2df,2pd)
   UNRESTRICTED   False
   max_scf_cycles   250
   geom_opt_max_cycles   1500
   basis2 6-31G*
   scf_algorithm rca_diis
   SYM_IGNORE  TRUE
   print_input   true
   geom_opt_dmax   80
   pop_mulliken false
   XC_GRID 000075000302
$end

$molecule
0 1
C       -5.5214011664     0.4699694503     -0.2509755899
C       -4.3514089425     1.2503507861     -0.3690553991
H       -5.6524215404     -0.3627348550     -0.9299225833
H       -6.4259108644     0.9509555610     0.0965579474
H       -4.6825314219     0.1120583306     0.8374287019
O       -3.5850846579     0.5875509596     1.1845029977
H       -4.1480477441     1.8180935279     -1.2661009828
H       -3.4793830771     1.0348910119     0.2356913357
H       -2.8345429827     0.0020024848     1.0347637357
$end
--------------------------------------------------------------

             Standard Nuclear Orientation (Angstroms)
    I     Atom           X                Y                Z
 ----------------------------------------------------------------
    1      C      -5.5214011664     0.4699694503    -0.2509755899
    2      C      -4.3514089425     1.2503507861    -0.3690553991
    3      H      -5.6524215404    -0.3627348550    -0.9299225833
    4      H      -6.4259108644     0.9509555610     0.0965579474
    5      H      -4.6825314219     0.1120583306     0.8374287019
    6      O      -3.5850846579     0.5875509596     1.1845029977
    7      H      -4.1480477441     1.8180935279    -1.2661009828
    8      H      -3.4793830771     1.0348910119     0.2356913357
    9      H      -2.8345429827     0.0020024848     1.0347637357
 ----------------------------------------------------------------

   23    -154.5977411301      5.34E-05 Convergence criterion met
   14    -154.6753771215      5.32E-06 Convergence criterion met
 Total energy in the final basis set = -154.67537712

                    Orbital Energies (a.u.)
 --------------------------------------------------------------

 Alpha MOs
 -- Occupied --
-19.2448 -10.3082 -10.2592  -1.1612  -0.8718  -0.7133  -0.6409  -0.5727
 -0.5279  -0.5049  -0.4650  -0.3182  -0.2437

                    Cartesian Multipole Moments
 -----------------------------------------------------------------
    Charge (ESU x 10^10)
                 0.0000
    Dipole Moment (Debye)
         X       0.9686      Y      -0.7864      Z      -1.1376
       Tot       1.6884
    Quadrupole Moments (Debye-Ang)
        XX     -26.5056     XY       1.8640     YY     -21.6311
        XZ       4.1699     YZ      -1.2621     ZZ     -24.5297

 Total job time:  24.82s(wall), 138.21s(cpu)
        *  Thank you very much for using Q-Chem.  Have a nice day.  *
