 Q-Chem 5.3 (devel), Q-Chem, Inc., Pleasanton, CA (2020)
 Q-Chem 5.3.0 for Intel X86 EM64T Linux

User input:
--------------------------------------------------------------
$rem
   JOBTYPE  sp
   EXCHANGE   omegaB97X-D
   BASIS   6-311+G(2df,2pd)
   UNRESTRICTED   False
   max_scf_cycles   250
   geom_opt_max_cycles   1500
   basis2 6-31G*
   scf_algorithm rca_diis
   SYM_IGNORE  TRUE
   print_input   true
   geom_opt_dmax   80
   pop_mulliken false
   XC_GRID 000075000302
$end

$molecule
0 1
C       -5.5435800576     0.5306007775     -0.1469888692
C       -4.3968165407     1.3531360317     -0.1332460023
H       -5.8492887596     0.0936223398     -1.0888613940
H       -6.3332028735     0.7394783430     0.5623283822
H       -4.5053183269     -0.2295466852     0.4535235235
O       -3.3414079132     0.1052353639     0.7436557957
H       -3.6582415589     1.2670089876     0.6512713689
H       -4.3891924619     2.3004268810     -0.6577958644
H       -2.6636839049     -0.2968247822     0.1890032229
$end
--------------------------------------------------------------

             Standard Nuclear Orientation (Angstroms)
    I     Atom           X                Y                Z
 ----------------------------------------------------------------
    1      C      -5.5435800576     0.5306007775    -0.1469888692
    2      C      -4.3968165407     1.3531360317    -0.1332460023
    3      H      -5.8492887596     0.0936223398    -1.0888613940
    4      H      -6.3332028735     0.7394783430     0.5623283822
    5      H      -4.5053183269    -0.2295466852     0.4535235235
    6      O      -3.3414079132     0.1052353639     0.7436557957
    7      H      -3.6582415589     1.2670089876     0.6512713689
    8      H      -4.3891924619     2.3004268810    -0.6577958644
    9      H      -2.6636839049    -0.2968247822     0.1890032229
 ----------------------------------------------------------------

    8    -154.6935368079      7.32E-05 Convergence criterion met
   10    -154.7746697638      9.18E-06 Convergence criterion met
 Total energy in the final basis set = -154.77466976

                    Orbital Energies (a.u.)
 --------------------------------------------------------------

 Alpha MOs
 -- Occupied --
-19.2682 -10.3144 -10.2542  -1.1432  -0.8675  -0.7126  -0.6481  -0.5616
 -0.5118  -0.4994  -0.4638  -0.3234  -0.2908

                    Cartesian Multipole Moments
 -----------------------------------------------------------------
    Charge (ESU x 10^10)
                -0.0000
    Dipole Moment (Debye)
         X       1.0386      Y       0.0704      Z      -1.1041
       Tot       1.5174
    Quadrupole Moments (Debye-Ang)
        XX     -28.2893     XY      -1.0266     YY     -19.8827
        XZ       2.9447     YZ      -0.0223     ZZ     -22.7225

 Total job time:  17.16s(wall), 91.95s(cpu)
        *  Thank you very much for using Q-Chem.  Have a nice day.  *
