 Q-Chem 5.3 (devel), Q-Chem, Inc., Pleasanton, CA (2020)
 Q-Chem 5.3.0 for Intel X86 EM64T Linux

User input:
--------------------------------------------------------------
$rem
   JOBTYPE  sp
   EXCHANGE   omegaB97X-D
   BASIS   6-311+G(2df,2pd)
   UNRESTRICTED   False
   max_scf_cycles   250
   geom_opt_max_cycles   1500
   basis2 6-31G*
   scf_algorithm rca_diis
   SYM_IGNORE  TRUE
   print_input   true
   geom_opt_dmax   80
   pop_mulliken false
   XC_GRID 000075000302
$end

$molecule
0 1
C       -5.5098040620     0.4581001533     -0.2557855002
C       -4.3274143689     1.2178375867     -0.3845229099
H       -5.6345117053     -0.4074671498     -0.8935731340
H       -6.4164711902     0.9669061583     0.0431060519
H       -4.7028215389     0.1481343261     0.8707699195
O       -3.6083690823     0.6286063577     1.2204321194
H       -4.2337406029     1.9786894151     -1.1465649678
H       -3.3857517233     0.8448291534     -0.0014996626
H       -2.8618481234     0.0275012562     1.1205282469
$end
--------------------------------------------------------------

             Standard Nuclear Orientation (Angstroms)
    I     Atom           X                Y                Z
 ----------------------------------------------------------------
    1      C      -5.5098040620     0.4581001533    -0.2557855002
    2      C      -4.3274143689     1.2178375867    -0.3845229099
    3      H      -5.6345117053    -0.4074671498    -0.8935731340
    4      H      -6.4164711902     0.9669061583     0.0431060519
    5      H      -4.7028215389     0.1481343261     0.8707699195
    6      O      -3.6083690823     0.6286063577     1.2204321194
    7      H      -4.2337406029     1.9786894151    -1.1465649678
    8      H      -3.3857517233     0.8448291534    -0.0014996626
    9      H      -2.8618481234     0.0275012562     1.1205282469
 ----------------------------------------------------------------

    8    -154.6945919374      7.07E-05 Convergence criterion met
    9    -154.7755280298      9.46E-06 Convergence criterion met
 Total energy in the final basis set = -154.77552803

                    Orbital Energies (a.u.)
 --------------------------------------------------------------

 Alpha MOs
 -- Occupied --
-19.2620 -10.3237 -10.2579  -1.1434  -0.8685  -0.7028  -0.6383  -0.5688
 -0.5226  -0.4990  -0.4634  -0.3179  -0.3001

                    Cartesian Multipole Moments
 -----------------------------------------------------------------
    Charge (ESU x 10^10)
                 0.0000
    Dipole Moment (Debye)
         X       1.1555      Y      -0.5990      Z      -0.9921
       Tot       1.6366
    Quadrupole Moments (Debye-Ang)
        XX     -29.0918     XY       1.7440     YY     -20.8331
        XZ       4.5050     YZ      -2.0804     ZZ     -23.2078

 Total job time:  16.94s(wall), 90.66s(cpu)
        *  Thank you very much for using Q-Chem.  Have a nice day.  *
