 Q-Chem 5.3 (devel), Q-Chem, Inc., Pleasanton, CA (2020)
 Q-Chem 5.3.0 for Intel X86 EM64T Linux

User input:
--------------------------------------------------------------
$rem
   JOBTYPE  sp
   EXCHANGE   omegaB97X-D
   BASIS   6-311+G(2df,2pd)
   UNRESTRICTED   False
   max_scf_cycles   250
   geom_opt_max_cycles   1500
   basis2 6-31G*
   scf_algorithm rca_diis
   SYM_IGNORE  TRUE
   print_input   true
   geom_opt_dmax   80
   pop_mulliken false
   XC_GRID 000075000302
$end

$molecule
0 1
C       -5.5312274817     0.5333289399     -0.0763093902
C       -4.3186383929     1.2524151061     -0.1423583239
H       -6.0508664936     0.3192539259     -1.0013385812
H       -6.1492558197     0.6495858045     0.8039123471
H       -4.4895709636     -0.4045797974     0.1510793054
O       -3.2626667338     -0.2191178609     0.2571598777
H       -3.9797893858     1.8518662543     0.6908391608
H       -3.8879374286     1.5240527904     -1.0980153153
H       -3.0107796975     0.3563320943     0.9879210829
$end
--------------------------------------------------------------

             Standard Nuclear Orientation (Angstroms)
    I     Atom           X                Y                Z
 ----------------------------------------------------------------
    1      C      -5.5312274817     0.5333289399    -0.0763093902
    2      C      -4.3186383929     1.2524151061    -0.1423583239
    3      H      -6.0508664936     0.3192539259    -1.0013385812
    4      H      -6.1492558197     0.6495858045     0.8039123471
    5      H      -4.4895709636    -0.4045797974     0.1510793054
    6      O      -3.2626667338    -0.2191178609     0.2571598777
    7      H      -3.9797893858     1.8518662543     0.6908391608
    8      H      -3.8879374286     1.5240527904    -1.0980153153
    9      H      -3.0107796975     0.3563320943     0.9879210829
 ----------------------------------------------------------------

    7    -154.8440339827      5.14E-05 Convergence criterion met
    8    -154.9205246342      3.87E-06 Convergence criterion met
 Total energy in the final basis set = -154.92052463

                    Orbital Energies (a.u.)
 --------------------------------------------------------------

 Alpha MOs
 -- Occupied --
-19.2429 -10.3635 -10.2575  -1.0977  -0.8757  -0.7082  -0.6122  -0.5753
 -0.5092  -0.4746  -0.4519  -0.4181  -0.3026

                    Cartesian Multipole Moments
 -----------------------------------------------------------------
    Charge (ESU x 10^10)
                -0.0000
    Dipole Moment (Debye)
         X      -0.1637      Y       2.1452      Z       0.6310
       Tot       2.2421
    Quadrupole Moments (Debye-Ang)
        XX     -21.5290     XY      -6.4030     YY     -19.5352
        XZ      -1.5474     YZ       1.0138     ZZ     -18.1105

 Total job time:  15.08s(wall), 78.95s(cpu)
        *  Thank you very much for using Q-Chem.  Have a nice day.  *
