 Q-Chem 5.3 (devel), Q-Chem, Inc., Pleasanton, CA (2020)
 Q-Chem 5.3.0 for Intel X86 EM64T Linux

User input:
--------------------------------------------------------------
$rem
   JOBTYPE  sp
   EXCHANGE   omegaB97X-D
   BASIS   6-311+G(2df,2pd)
   UNRESTRICTED   False
   max_scf_cycles   250
   geom_opt_max_cycles   1500
   basis2 6-31G*
   scf_algorithm rca_diis
   SYM_IGNORE  TRUE
   print_input   true
   geom_opt_dmax   80
   pop_mulliken false
   XC_GRID 000075000302
$end

$molecule
0 1
C       -5.5359271409     0.5303758367     -0.0722984106
C       -4.3322228747     1.2577784188     0.0451800886
H       -5.9082426662     0.3129443115     -1.0650906848
H       -6.2807281960     0.6421965262     0.7042532706
H       -4.5342656932     -0.4004146288     0.3107553372
O       -3.3388030640     -0.2065633419     0.6009862586
H       -4.1273542438     1.8593568997     0.9195430296
H       -3.7638272880     1.5325745866     -0.8345836073
H       -2.8593612306     0.3348886483     -0.0358551186
$end
--------------------------------------------------------------

             Standard Nuclear Orientation (Angstroms)
    I     Atom           X                Y                Z
 ----------------------------------------------------------------
    1      C      -5.5359271409     0.5303758367    -0.0722984106
    2      C      -4.3322228747     1.2577784188     0.0451800886
    3      H      -5.9082426662     0.3129443115    -1.0650906848
    4      H      -6.2807281960     0.6421965262     0.7042532706
    5      H      -4.5342656932    -0.4004146288     0.3107553372
    6      O      -3.3388030640    -0.2065633419     0.6009862586
    7      H      -4.1273542438     1.8593568997     0.9195430296
    8      H      -3.7638272880     1.5325745866    -0.8345836073
    9      H      -2.8593612306     0.3348886483    -0.0358551186
 ----------------------------------------------------------------

    7    -154.8249212644      5.65E-05 Convergence criterion met
    8    -154.9035926506      2.94E-06 Convergence criterion met
 Total energy in the final basis set = -154.90359265

                    Orbital Energies (a.u.)
 --------------------------------------------------------------

 Alpha MOs
 -- Occupied --
-19.2355 -10.3718 -10.2605  -1.0994  -0.8781  -0.7191  -0.6083  -0.5809
 -0.5112  -0.4830  -0.4599  -0.4011  -0.3019

                    Cartesian Multipole Moments
 -----------------------------------------------------------------
    Charge (ESU x 10^10)
                -0.0000
    Dipole Moment (Debye)
         X       0.0247      Y       2.1592      Z      -1.3252
       Tot       2.5335
    Quadrupole Moments (Debye-Ang)
        XX     -21.7580     XY      -6.5935     YY     -19.3152
        XZ       2.9744     YZ       0.6848     ZZ     -20.7234

 Total job time:  16.01s(wall), 85.00s(cpu)
        *  Thank you very much for using Q-Chem.  Have a nice day.  *
