 Q-Chem 5.3 (devel), Q-Chem, Inc., Pleasanton, CA (2020)
 Q-Chem 5.3.0 for Intel X86 EM64T Linux

User input:
--------------------------------------------------------------
$rem
   JOBTYPE  sp
   EXCHANGE   omegaB97X-D
   BASIS   6-311+G(2df,2pd)
   UNRESTRICTED   False
   max_scf_cycles   250
   geom_opt_max_cycles   1500
   basis2 6-31G*
   scf_algorithm rca_diis
   SYM_IGNORE  TRUE
   print_input   true
   geom_opt_dmax   80
   pop_mulliken false
   XC_GRID 000075000302
$end

$molecule
0 1
C       -5.5336807641     0.5371176289     -0.0790305606
C       -4.3389569334     1.2827555175     -0.1711108637
H       -6.0579252945     0.2944978187     -0.9943638979
H       -6.1449225826     0.6548425230     0.8057232359
H       -4.4680907568     -0.3722108081     0.1534913745
O       -3.2447937282     -0.1565449518     0.2427988491
H       -4.0054005434     1.9047548584     0.6475681526
H       -3.9248240663     1.5470708341     -1.1360989565
H       -2.9621377280     0.1708538363     1.1039128300
$end
--------------------------------------------------------------

             Standard Nuclear Orientation (Angstroms)
    I     Atom           X                Y                Z
 ----------------------------------------------------------------
    1      C      -5.5336807641     0.5371176289    -0.0790305606
    2      C      -4.3389569334     1.2827555175    -0.1711108637
    3      H      -6.0579252945     0.2944978187    -0.9943638979
    4      H      -6.1449225826     0.6548425230     0.8057232359
    5      H      -4.4680907568    -0.3722108081     0.1534913745
    6      O      -3.2447937282    -0.1565449518     0.2427988491
    7      H      -4.0054005434     1.9047548584     0.6475681526
    8      H      -3.9248240663     1.5470708341    -1.1360989565
    9      H      -2.9621377280     0.1708538363     1.1039128300
 ----------------------------------------------------------------

    7    -154.8575191920      4.57E-05 Convergence criterion met
    7    -154.9327167803      7.91E-06 Convergence criterion met
 Total energy in the final basis set = -154.93271678

                    Orbital Energies (a.u.)
 --------------------------------------------------------------

 Alpha MOs
 -- Occupied --
-19.2451 -10.3573 -10.2552  -1.0940  -0.8744  -0.7008  -0.6117  -0.5719
 -0.5081  -0.4649  -0.4455  -0.4278  -0.3031

                    Cartesian Multipole Moments
 -----------------------------------------------------------------
    Charge (ESU x 10^10)
                -0.0000
    Dipole Moment (Debye)
         X      -0.0527      Y       1.7985      Z       0.8865
       Tot       2.0058
    Quadrupole Moments (Debye-Ang)
        XX     -22.3966     XY      -5.4686     YY     -19.7100
        XZ      -2.2051     YZ       0.5709     ZZ     -17.5303

 Total job time:  12.98s(wall), 68.38s(cpu)
        *  Thank you very much for using Q-Chem.  Have a nice day.  *
