 Q-Chem 5.3 (devel), Q-Chem, Inc., Pleasanton, CA (2020)
 Q-Chem 5.3.0 for Intel X86 EM64T Linux

User input:
--------------------------------------------------------------
$rem
   JOBTYPE  sp
   EXCHANGE   omegaB97X-D
   BASIS   6-311+G(2df,2pd)
   UNRESTRICTED   False
   max_scf_cycles   250
   geom_opt_max_cycles   1500
   basis2 6-31G*
   scf_algorithm rca_diis
   SYM_IGNORE  TRUE
   print_input   true
   geom_opt_dmax   80
   pop_mulliken false
   XC_GRID 000075000302
$end

$molecule
0 1
C       -5.5400734378     0.5458513541     -0.0843127777
C       -4.3810248023     1.3419045689     -0.2056602717
H       -6.0404593255     0.2281857383     -0.9899806740
H       -6.1674783699     0.6826296714     0.7862730797
H       -4.4355657607     -0.2969403953     0.2092712454
O       -3.2251317053     -0.0180618846     0.2988222403
H       -4.0878755643     2.0234269716     0.5804498453
H       -3.9676058521     1.5722329610     -1.1796234336
H       -2.8355175796     -0.2160917284     1.1576509095
$end
--------------------------------------------------------------

             Standard Nuclear Orientation (Angstroms)
    I     Atom           X                Y                Z
 ----------------------------------------------------------------
    1      C      -5.5400734378     0.5458513541    -0.0843127777
    2      C      -4.3810248023     1.3419045689    -0.2056602717
    3      H      -6.0404593255     0.2281857383    -0.9899806740
    4      H      -6.1674783699     0.6826296714     0.7862730797
    5      H      -4.4355657607    -0.2969403953     0.2092712454
    6      O      -3.2251317053    -0.0180618846     0.2988222403
    7      H      -4.0878755643     2.0234269716     0.5804498453
    8      H      -3.9676058521     1.5722329610    -1.1796234336
    9      H      -2.8355175796    -0.2160917284     1.1576509095
 ----------------------------------------------------------------

    7    -154.8570157892      3.88E-05 Convergence criterion met
    7    -154.9334144622      5.38E-06 Convergence criterion met
 Total energy in the final basis set = -154.93341446

                    Orbital Energies (a.u.)
 --------------------------------------------------------------

 Alpha MOs
 -- Occupied --
-19.2343 -10.3541 -10.2566  -1.0811  -0.8756  -0.6979  -0.6090  -0.5694
 -0.5090  -0.4529  -0.4419  -0.4118  -0.3072

                    Cartesian Multipole Moments
 -----------------------------------------------------------------
    Charge (ESU x 10^10)
                 0.0000
    Dipole Moment (Debye)
         X      -0.1071      Y       1.0941      Z       0.9116
       Tot       1.4281
    Quadrupole Moments (Debye-Ang)
        XX     -21.4379     XY      -3.7724     YY     -19.2260
        XZ      -2.1468     YZ      -0.5372     ZZ     -17.4002

 Total job time:  13.57s(wall), 70.67s(cpu)
        *  Thank you very much for using Q-Chem.  Have a nice day.  *
