 Q-Chem 5.3 (devel), Q-Chem, Inc., Pleasanton, CA (2020)
 Q-Chem 5.3.0 for Intel X86 EM64T Linux

User input:
--------------------------------------------------------------
$rem
   JOBTYPE  sp
   EXCHANGE   omegaB97X-D
   BASIS   6-311+G(2df,2pd)
   UNRESTRICTED   False
   max_scf_cycles   250
   geom_opt_max_cycles   1500
   basis2 6-31G*
   scf_algorithm rca_diis
   SYM_IGNORE  TRUE
   print_input   true
   geom_opt_dmax   80
   pop_mulliken false
   XC_GRID 000075000302
$end

$molecule
0 1
C       -5.5376410616     0.5316071926     -0.0723644279
C       -4.3445810468     1.2749204138     0.0537820375
H       -5.8997836079     0.3091981042     -1.0678134683
H       -6.2895078658     0.6335829852     0.6987141922
H       -4.5265434932     -0.3857914957     0.3181327860
O       -3.3359076001     -0.1760819071     0.6170496062
H       -4.1540974458     1.8792144926     0.9295234612
H       -3.7734745648     1.5571813403     -0.8218530424
H       -2.8191957114     0.2393061312     -0.0822809814
$end
--------------------------------------------------------------

             Standard Nuclear Orientation (Angstroms)
    I     Atom           X                Y                Z
 ----------------------------------------------------------------
    1      C      -5.5376410616     0.5316071926    -0.0723644279
    2      C      -4.3445810468     1.2749204138     0.0537820375
    3      H      -5.8997836079     0.3091981042    -1.0678134683
    4      H      -6.2895078658     0.6335829852     0.6987141922
    5      H      -4.5265434932    -0.3857914957     0.3181327860
    6      O      -3.3359076001    -0.1760819071     0.6170496062
    7      H      -4.1540974458     1.8792144926     0.9295234612
    8      H      -3.7734745648     1.5571813403    -0.8218530424
    9      H      -2.8191957114     0.2393061312    -0.0822809814
 ----------------------------------------------------------------

    7    -154.8357906449      5.41E-05 Convergence criterion met
    8    -154.9132153037      2.74E-06 Convergence criterion met
 Total energy in the final basis set = -154.91321530

                    Orbital Energies (a.u.)
 --------------------------------------------------------------

 Alpha MOs
 -- Occupied --
-19.2399 -10.3669 -10.2585  -1.0985  -0.8767  -0.7127  -0.6096  -0.5780
 -0.5096  -0.4791  -0.4567  -0.4090  -0.3022

                    Cartesian Multipole Moments
 -----------------------------------------------------------------
    Charge (ESU x 10^10)
                -0.0000
    Dipole Moment (Debye)
         X       0.1691      Y       1.9474      Z      -1.4000
       Tot       2.4044
    Quadrupole Moments (Debye-Ang)
        XX     -22.8019     XY      -6.0341     YY     -19.4585
        XZ       3.1085     YZ       0.7069     ZZ     -20.7195

 Total job time:  15.69s(wall), 82.80s(cpu)
        *  Thank you very much for using Q-Chem.  Have a nice day.  *
