 Q-Chem 5.3 (devel), Q-Chem, Inc., Pleasanton, CA (2020)
 Q-Chem 5.3.0 for Intel X86 EM64T Linux

User input:
--------------------------------------------------------------
$rem
   JOBTYPE  sp
   EXCHANGE   omegaB97X-D
   BASIS   6-311+G(2df,2pd)
   UNRESTRICTED   False
   max_scf_cycles   250
   geom_opt_max_cycles   1500
   basis2 6-31G*
   scf_algorithm rca_diis
   SYM_IGNORE  TRUE
   print_input   true
   geom_opt_dmax   80
   pop_mulliken false
   XC_GRID 000075000302
$end

$molecule
0 1
C       -5.4864784846     0.4277898412     -0.2662555214
C       -4.2763436673     1.1366881832     -0.4239150892
H       -5.6096306041     -0.5019655215     -0.8065520506
H       -6.3892156526     0.9910047153     -0.0710131000
H       -4.7406218574     0.2288436645     0.9256106751
O       -3.6483597252     0.7178322911     1.2702797406
H       -4.2714933955     2.1630673325     -0.7628851379
H       -3.3412983910     0.6098294424     -0.5677234195
H       -2.9172906195     0.0900473086     1.2753440662
$end
--------------------------------------------------------------

             Standard Nuclear Orientation (Angstroms)
    I     Atom           X                Y                Z
 ----------------------------------------------------------------
    1      C      -5.4864784846     0.4277898412    -0.2662555214
    2      C      -4.2763436673     1.1366881832    -0.4239150892
    3      H      -5.6096306041    -0.5019655215    -0.8065520506
    4      H      -6.3892156526     0.9910047153    -0.0710131000
    5      H      -4.7406218574     0.2288436645     0.9256106751
    6      O      -3.6483597252     0.7178322911     1.2702797406
    7      H      -4.2714933955     2.1630673325    -0.7628851379
    8      H      -3.3412983910     0.6098294424    -0.5677234195
    9      H      -2.9172906195     0.0900473086     1.2753440662
 ----------------------------------------------------------------

    7    -154.8328167245      4.27E-05 Convergence criterion met
    8    -154.9088674542      3.57E-06 Convergence criterion met
 Total energy in the final basis set = -154.90886745

                    Orbital Energies (a.u.)
 --------------------------------------------------------------

 Alpha MOs
 -- Occupied --
-19.2425 -10.3534 -10.2556  -1.0935  -0.8744  -0.6990  -0.6134  -0.5720
 -0.5074  -0.4741  -0.4483  -0.3930  -0.3057

                    Cartesian Multipole Moments
 -----------------------------------------------------------------
    Charge (ESU x 10^10)
                 0.0000
    Dipole Moment (Debye)
         X       1.0046      Y      -0.4927      Z      -1.4415
       Tot       1.8248
    Quadrupole Moments (Debye-Ang)
        XX     -27.7894     XY       0.6667     YY     -19.7621
        XZ       5.8519     YZ      -2.9355     ZZ     -23.8893

 Total job time:  14.34s(wall), 75.00s(cpu)
        *  Thank you very much for using Q-Chem.  Have a nice day.  *
