 Q-Chem 5.3 (devel), Q-Chem, Inc., Pleasanton, CA (2020)
 Q-Chem 5.3.0 for Intel X86 EM64T Linux

User input:
--------------------------------------------------------------
$rem
   JOBTYPE  sp
   EXCHANGE   omegaB97X-D
   BASIS   6-311+G(2df,2pd)
   UNRESTRICTED   False
   max_scf_cycles   250
   geom_opt_max_cycles   1500
   basis2 6-31G*
   scf_algorithm rca_diis
   SYM_IGNORE  TRUE
   print_input   true
   geom_opt_dmax   80
   pop_mulliken false
   XC_GRID 000075000302
$end

$molecule
0 1
C       -5.4759534587     0.4096928017     -0.2728138384
C       -4.2518722071     1.0902313845     -0.4469172605
H       -5.6023601092     -0.5494414313     -0.7582154251
H       -6.3736430932     0.9966533070     -0.1317618014
H       -4.7582377260     0.2731837719     0.9448380544
O       -3.6658695454     0.7665900336     1.2828102810
H       -4.2201588970     2.1671441290     -0.5342761974
H       -3.3876739189     0.5792123689     -0.8526160672
H       -2.9449634417     0.1298708918     1.3418424179
$end
--------------------------------------------------------------

             Standard Nuclear Orientation (Angstroms)
    I     Atom           X                Y                Z
 ----------------------------------------------------------------
    1      C      -5.4759534587     0.4096928017    -0.2728138384
    2      C      -4.2518722071     1.0902313845    -0.4469172605
    3      H      -5.6023601092    -0.5494414313    -0.7582154251
    4      H      -6.3736430932     0.9966533070    -0.1317618014
    5      H      -4.7582377260     0.2731837719     0.9448380544
    6      O      -3.6658695454     0.7665900336     1.2828102810
    7      H      -4.2201588970     2.1671441290    -0.5342761974
    8      H      -3.3876739189     0.5792123689    -0.8526160672
    9      H      -2.9449634417     0.1298708918     1.3418424179
 ----------------------------------------------------------------

    7    -154.8588829026      4.06E-05 Convergence criterion met
    7    -154.9343616281      8.22E-06 Convergence criterion met
 Total energy in the final basis set = -154.93436163

                    Orbital Energies (a.u.)
 --------------------------------------------------------------

 Alpha MOs
 -- Occupied --
-19.2417 -10.3545 -10.2547  -1.0885  -0.8745  -0.6979  -0.6093  -0.5726
 -0.5062  -0.4613  -0.4415  -0.4204  -0.3052

                    Cartesian Multipole Moments
 -----------------------------------------------------------------
    Charge (ESU x 10^10)
                 0.0000
    Dipole Moment (Debye)
         X       1.0426      Y      -0.5689      Z      -1.3766
       Tot       1.8181
    Quadrupole Moments (Debye-Ang)
        XX     -28.2531     XY       1.0301     YY     -19.8708
        XZ       5.4365     YZ      -2.8056     ZZ     -23.6042

 Total job time:  12.84s(wall), 67.58s(cpu)
        *  Thank you very much for using Q-Chem.  Have a nice day.  *
