 Q-Chem 5.3 (devel), Q-Chem, Inc., Pleasanton, CA (2020)
 Q-Chem 5.3.0 for Intel X86 EM64T Linux

User input:
--------------------------------------------------------------
$rem
   JOBTYPE  sp
   EXCHANGE   omegaB97X-D
   BASIS   6-311+G(2df,2pd)
   UNRESTRICTED   False
   max_scf_cycles   250
   geom_opt_max_cycles   1500
   basis2 6-31G*
   scf_algorithm rca_diis
   SYM_IGNORE  TRUE
   print_input   true
   geom_opt_dmax   80
   pop_mulliken false
   XC_GRID 000075000302
$end

$molecule
0 1
C       -5.5610965424     0.5484705098     0.0134185062
C       -4.3864251601     1.3405980790     0.0095845640
H       -5.8000370473     0.3263515681     -1.0204114592
H       -6.3896454181     0.5591570737     0.7069103660
H       -4.4616270426     -0.3019217765     0.2861127427
O       -3.2904310757     -0.0243529425     0.6011558330
H       -4.3037148098     1.9184760755     0.9188366175
H       -3.7903841961     1.7223914033     -0.8109979861
H       -2.6973711054     -0.2260327332     -0.1317190209
$end
--------------------------------------------------------------

             Standard Nuclear Orientation (Angstroms)
    I     Atom           X                Y                Z
 ----------------------------------------------------------------
    1      C      -5.5610965424     0.5484705098     0.0134185062
    2      C      -4.3864251601     1.3405980790     0.0095845640
    3      H      -5.8000370473     0.3263515681    -1.0204114592
    4      H      -6.3896454181     0.5591570737     0.7069103660
    5      H      -4.4616270426    -0.3019217765     0.2861127427
    6      O      -3.2904310757    -0.0243529425     0.6011558330
    7      H      -4.3037148098     1.9184760755     0.9188366175
    8      H      -3.7903841961     1.7223914033    -0.8109979861
    9      H      -2.6973711054    -0.2260327332    -0.1317190209
 ----------------------------------------------------------------

    7    -154.8502897060      4.39E-05 Convergence criterion met
    7    -154.9257647495      8.22E-06 Convergence criterion met
 Total energy in the final basis set = -154.92576475

                    Orbital Energies (a.u.)
 --------------------------------------------------------------

 Alpha MOs
 -- Occupied --
-19.2467 -10.3559 -10.2552  -1.0943  -0.8755  -0.6990  -0.6095  -0.5708
 -0.5114  -0.4710  -0.4325  -0.4228  -0.3041

                    Cartesian Multipole Moments
 -----------------------------------------------------------------
    Charge (ESU x 10^10)
                -0.0000
    Dipole Moment (Debye)
         X       0.4738      Y       1.0072      Z      -1.5793
       Tot       1.9322
    Quadrupole Moments (Debye-Ang)
        XX     -24.7832     XY      -3.8127     YY     -19.3428
        XZ       3.2204     YZ       0.5808     ZZ     -20.9257

 Total job time:  18.28s(wall), 96.18s(cpu)
        *  Thank you very much for using Q-Chem.  Have a nice day.  *
