 Q-Chem 5.3 (devel), Q-Chem, Inc., Pleasanton, CA (2020)
 Q-Chem 5.3.0 for Intel X86 EM64T Linux

User input:
--------------------------------------------------------------
$rem
   JOBTYPE  sp
   EXCHANGE   omegaB97X-D
   BASIS   6-311+G(2df,2pd)
   UNRESTRICTED   False
   max_scf_cycles   250
   geom_opt_max_cycles   1500
   basis2 6-31G*
   scf_algorithm rca_diis
   SYM_IGNORE  TRUE
   print_input   true
   geom_opt_dmax   80
   pop_mulliken false
   XC_GRID 000075000302
$end

$molecule
0 1
C       -5.5190265314     0.5527990309     -0.0663714045
C       -4.3873437581     1.3790821585     0.0642520491
H       -5.9244092960     0.2979263000     -1.1862784309
H       -6.3577746138     0.5827477815     0.7923215782
H       -4.4511663565     -0.2995914932     0.2929693410
O       -3.2768657510     -0.0125386184     0.5884954507
H       -4.2448352630     1.9377283967     0.9024459588
H       -3.8919482903     1.6925671218     -0.7386975930
H       -2.6273625372     -0.2675834208     -0.0762467862
$end
--------------------------------------------------------------

             Standard Nuclear Orientation (Angstroms)
    I     Atom           X                Y                Z
 ----------------------------------------------------------------
    1      C      -5.5190265314     0.5527990309    -0.0663714045
    2      C      -4.3873437581     1.3790821585     0.0642520491
    3      H      -5.9244092960     0.2979263000    -1.1862784309
    4      H      -6.3577746138     0.5827477815     0.7923215782
    5      H      -4.4511663565    -0.2995914932     0.2929693410
    6      O      -3.2768657510    -0.0125386184     0.5884954507
    7      H      -4.2448352630     1.9377283967     0.9024459588
    8      H      -3.8919482903     1.6925671218    -0.7386975930
    9      H      -2.6273625372    -0.2675834208    -0.0762467862
 ----------------------------------------------------------------

    7    -154.8361154071      4.67E-05 Convergence criterion met
    7    -154.9118723460      5.38E-06 Convergence criterion met
 Total energy in the final basis set = -154.91187235

                    Orbital Energies (a.u.)
 --------------------------------------------------------------

 Alpha MOs
 -- Occupied --
-19.2429 -10.3402 -10.2784  -1.0897  -0.8794  -0.6996  -0.6098  -0.5767
 -0.4996  -0.4522  -0.4318  -0.4302  -0.3061

                    Cartesian Multipole Moments
 -----------------------------------------------------------------
    Charge (ESU x 10^10)
                 0.0000
    Dipole Moment (Debye)
         X       0.5707      Y       1.0184      Z      -1.4353
       Tot       1.8502
    Quadrupole Moments (Debye-Ang)
        XX     -25.7122     XY      -3.9180     YY     -19.0113
        XZ       3.1337     YZ       0.9006     ZZ     -20.8860

 Total job time:  15.37s(wall), 78.30s(cpu)
        *  Thank you very much for using Q-Chem.  Have a nice day.  *
