 Q-Chem 5.3 (devel), Q-Chem, Inc., Pleasanton, CA (2020)
 Q-Chem 5.3.0 for Intel X86 EM64T Linux

User input:
--------------------------------------------------------------
$rem
   JOBTYPE  sp
   EXCHANGE   omegaB97X-D
   BASIS   6-311+G(2df,2pd)
   UNRESTRICTED   False
   max_scf_cycles   250
   geom_opt_max_cycles   1500
   basis2 6-31G*
   scf_algorithm rca_diis
   SYM_IGNORE  TRUE
   print_input   true
   geom_opt_dmax   80
   pop_mulliken false
   XC_GRID 000075000302
$end

$molecule
0 1
C       -5.5269428813     0.5470234109     -0.0706029562
C       -4.4391684931     1.3592426431     0.0520646335
H       -5.8608205496     0.3430014472     -1.0774509401
H       -6.2584163211     0.5803883100     0.7226926914
H       -4.4860930191     -0.2886811831     0.2892112263
O       -3.2944512534     -0.0014571584     0.5885510664
H       -4.2794821750     1.9128900114     0.9635028340
H       -3.8918360855     1.6743915156     -0.8239916971
H       -2.6435216192     -0.2636617395     -0.0710866949
$end
--------------------------------------------------------------

             Standard Nuclear Orientation (Angstroms)
    I     Atom           X                Y                Z
 ----------------------------------------------------------------
    1      C      -5.5269428813     0.5470234109    -0.0706029562
    2      C      -4.4391684931     1.3592426431     0.0520646335
    3      H      -5.8608205496     0.3430014472    -1.0774509401
    4      H      -6.2584163211     0.5803883100     0.7226926914
    5      H      -4.4860930191    -0.2886811831     0.2892112263
    6      O      -3.2944512534    -0.0014571584     0.5885510664
    7      H      -4.2794821750     1.9128900114     0.9635028340
    8      H      -3.8918360855     1.6743915156    -0.8239916971
    9      H      -2.6435216192    -0.2636617395    -0.0710866949
 ----------------------------------------------------------------

    7    -154.8583174484      3.73E-05 Convergence criterion met
    7    -154.9344878776      7.03E-06 Convergence criterion met
 Total energy in the final basis set = -154.93448788

                    Orbital Energies (a.u.)
 --------------------------------------------------------------

 Alpha MOs
 -- Occupied --
-19.2331 -10.3467 -10.2512  -1.0817  -0.8885  -0.6941  -0.6096  -0.5779
 -0.5084  -0.4600  -0.4377  -0.4180  -0.3095

                    Cartesian Multipole Moments
 -----------------------------------------------------------------
    Charge (ESU x 10^10)
                 0.0000
    Dipole Moment (Debye)
         X       0.1955      Y       0.9685      Z      -1.5155
       Tot       1.8091
    Quadrupole Moments (Debye-Ang)
        XX     -22.2934     XY      -4.0257     YY     -19.1316
        XZ       3.4492     YZ       0.8120     ZZ     -20.6121

 Total job time:  15.86s(wall), 83.30s(cpu)
        *  Thank you very much for using Q-Chem.  Have a nice day.  *
