 Q-Chem 5.3 (devel), Q-Chem, Inc., Pleasanton, CA (2020)
 Q-Chem 5.3.0 for Intel X86 EM64T Linux

User input:
--------------------------------------------------------------
$rem
   JOBTYPE  sp
   EXCHANGE   omegaB97X-D
   BASIS   6-311+G(2df,2pd)
   UNRESTRICTED   False
   max_scf_cycles   250
   geom_opt_max_cycles   1500
   basis2 6-31G*
   scf_algorithm rca_diis
   SYM_IGNORE  TRUE
   print_input   true
   geom_opt_dmax   80
   pop_mulliken false
   XC_GRID 000075000302
$end

$molecule
0 1
C       -5.5366667139     0.5319764595     -0.1174139492
C       -4.4021979845     1.3579701409     0.0124948173
H       -5.8608140513     0.3117456601     -1.0406519765
H       -6.3512568940     0.5730126419     0.7197121330
H       -4.4617407661     -0.3114541822     0.2678469771
O       -3.2894489191     -0.0180469778     0.5686821708
H       -4.2405901344     2.0380282877     1.0165519720
H       -3.9041389225     1.6638608030     -0.7675408040
H       -2.6338780116     -0.2839555760     -0.0867911771
$end
--------------------------------------------------------------

             Standard Nuclear Orientation (Angstroms)
    I     Atom           X                Y                Z
 ----------------------------------------------------------------
    1      C      -5.5366667139     0.5319764595    -0.1174139492
    2      C      -4.4021979845     1.3579701409     0.0124948173
    3      H      -5.8608140513     0.3117456601    -1.0406519765
    4      H      -6.3512568940     0.5730126419     0.7197121330
    5      H      -4.4617407661    -0.3114541822     0.2678469771
    6      O      -3.2894489191    -0.0180469778     0.5686821708
    7      H      -4.2405901344     2.0380282877     1.0165519720
    8      H      -3.9041389225     1.6638608030    -0.7675408040
    9      H      -2.6338780116    -0.2839555760    -0.0867911771
 ----------------------------------------------------------------

    7    -154.8327766697      4.27E-05 Convergence criterion met
    7    -154.9091256761      7.78E-06 Convergence criterion met
 Total energy in the final basis set = -154.90912568

                    Orbital Energies (a.u.)
 --------------------------------------------------------------

 Alpha MOs
 -- Occupied --
-19.2425 -10.3556 -10.2549  -1.0885  -0.8767  -0.7022  -0.6175  -0.5572
 -0.5109  -0.4559  -0.4364  -0.4247  -0.3057

                    Cartesian Multipole Moments
 -----------------------------------------------------------------
    Charge (ESU x 10^10)
                 0.0000
    Dipole Moment (Debye)
         X       0.5100      Y       0.8916      Z      -1.5432
       Tot       1.8538
    Quadrupole Moments (Debye-Ang)
        XX     -24.9716     XY      -3.4883     YY     -19.1883
        XZ       3.7252     YZ       0.8163     ZZ     -20.7484

 Total job time:  18.10s(wall), 95.12s(cpu)
        *  Thank you very much for using Q-Chem.  Have a nice day.  *
