 Q-Chem 5.3 (devel), Q-Chem, Inc., Pleasanton, CA (2020)
 Q-Chem 5.3.0 for Intel X86 EM64T Linux

User input:
--------------------------------------------------------------
$rem
   JOBTYPE  sp
   EXCHANGE   omegaB97X-D
   BASIS   6-311+G(2df,2pd)
   UNRESTRICTED   False
   max_scf_cycles   250
   geom_opt_max_cycles   1500
   basis2 6-31G*
   scf_algorithm rca_diis
   SYM_IGNORE  TRUE
   print_input   true
   geom_opt_dmax   80
   pop_mulliken false
   XC_GRID 000075000302
$end

$molecule
0 1
C       -5.5489612719     0.5411425905     -0.0481959465
C       -4.4136169888     1.3677038128     0.0993979916
H       -5.8352253294     0.3838933480     -1.0811863212
H       -6.3460304297     0.4979365637     0.6804381019
H       -4.4659990663     -0.3085020135     0.2969229407
O       -3.2918257357     -0.0191419416     0.5989287759
H       -4.1881852679     2.0114359276     0.9380661845
H       -3.9344372294     1.6530902913     -0.8287149999
H       -2.6564510782     -0.2644213217     -0.0827665637
$end
--------------------------------------------------------------

             Standard Nuclear Orientation (Angstroms)
    I     Atom           X                Y                Z
 ----------------------------------------------------------------
    1      C      -5.5489612719     0.5411425905    -0.0481959465
    2      C      -4.4136169888     1.3677038128     0.0993979916
    3      H      -5.8352253294     0.3838933480    -1.0811863212
    4      H      -6.3460304297     0.4979365637     0.6804381019
    5      H      -4.4659990663    -0.3085020135     0.2969229407
    6      O      -3.2918257357    -0.0191419416     0.5989287759
    7      H      -4.1881852679     2.0114359276     0.9380661845
    8      H      -3.9344372294     1.6530902913    -0.8287149999
    9      H      -2.6564510782    -0.2644213217    -0.0827665637
 ----------------------------------------------------------------

    7    -154.8602968390      4.09E-05 Convergence criterion met
    7    -154.9356282206      4.13E-06 Convergence criterion met
 Total energy in the final basis set = -154.93562822

                    Orbital Energies (a.u.)
 --------------------------------------------------------------

 Alpha MOs
 -- Occupied --
-19.2432 -10.3549 -10.2546  -1.0895  -0.8752  -0.6974  -0.6111  -0.5708
 -0.5031  -0.4606  -0.4398  -0.4283  -0.3049

                    Cartesian Multipole Moments
 -----------------------------------------------------------------
    Charge (ESU x 10^10)
                 0.0000
    Dipole Moment (Debye)
         X       0.4637      Y       0.9766      Z      -1.4723
       Tot       1.8266
    Quadrupole Moments (Debye-Ang)
        XX     -24.6887     XY      -3.7808     YY     -19.0884
        XZ       3.3837     YZ       0.8456     ZZ     -20.8097

 Total job time:  12.92s(wall), 67.60s(cpu)
        *  Thank you very much for using Q-Chem.  Have a nice day.  *
