 Q-Chem 5.3 (devel), Q-Chem, Inc., Pleasanton, CA (2020)
 Q-Chem 5.3.0 for Intel X86 EM64T Linux

User input:
--------------------------------------------------------------
$rem
   JOBTYPE  sp
   EXCHANGE   omegaB97X-D
   BASIS   6-311+G(2df,2pd)
   UNRESTRICTED   False
   max_scf_cycles   250
   geom_opt_max_cycles   1500
   basis2 6-31G*
   scf_algorithm rca_diis
   SYM_IGNORE  TRUE
   print_input   true
   geom_opt_dmax   80
   pop_mulliken false
   XC_GRID 000075000302
$end

$molecule
0 1
C       -5.5546916813     0.5471849378     -0.0277644044
C       -4.4178017121     1.3740338265     0.1181409221
H       -5.9348352673     0.3204789715     -1.1019283755
H       -6.2438062240     0.5622698855     0.6895457356
H       -4.4716188793     -0.3070552452     0.3110773981
O       -3.2959293781     -0.0200718430     0.6050559080
H       -4.2784379176     1.8860984747     0.8920953779
H       -3.8337729007     1.7592511230     -0.8456823953
H       -2.6498384368     -0.2590528738     -0.0676500034
$end
--------------------------------------------------------------

             Standard Nuclear Orientation (Angstroms)
    I     Atom           X                Y                Z
 ----------------------------------------------------------------
    1      C      -5.5546916813     0.5471849378    -0.0277644044
    2      C      -4.4178017121     1.3740338265     0.1181409221
    3      H      -5.9348352673     0.3204789715    -1.1019283755
    4      H      -6.2438062240     0.5622698855     0.6895457356
    5      H      -4.4716188793    -0.3070552452     0.3110773981
    6      O      -3.2959293781    -0.0200718430     0.6050559080
    7      H      -4.2784379176     1.8860984747     0.8920953779
    8      H      -3.8337729007     1.7592511230    -0.8456823953
    9      H      -2.6498384368    -0.2590528738    -0.0676500034
 ----------------------------------------------------------------

    7    -154.8275373546      4.09E-05 Convergence criterion met
    7    -154.9044758444      4.22E-06 Convergence criterion met
 Total energy in the final basis set = -154.90447584

                    Orbital Energies (a.u.)
 --------------------------------------------------------------

 Alpha MOs
 -- Occupied --
-19.2431 -10.3505 -10.2534  -1.0894  -0.8791  -0.7089  -0.6097  -0.5798
 -0.5002  -0.4576  -0.4451  -0.4268  -0.3055

                    Cartesian Multipole Moments
 -----------------------------------------------------------------
    Charge (ESU x 10^10)
                 0.0000
    Dipole Moment (Debye)
         X       0.4473      Y       0.9788      Z      -1.3584
       Tot       1.7330
    Quadrupole Moments (Debye-Ang)
        XX     -24.4186     XY      -3.8587     YY     -19.0681
        XZ       2.8216     YZ       0.9763     ZZ     -20.8201

 Total job time:  17.30s(wall), 89.15s(cpu)
        *  Thank you very much for using Q-Chem.  Have a nice day.  *
