 Q-Chem 5.3 (devel), Q-Chem, Inc., Pleasanton, CA (2020)
 Q-Chem 5.3.0 for Intel X86 EM64T Linux

User input:
--------------------------------------------------------------
$rem
   JOBTYPE  sp
   EXCHANGE   omegaB97X-D
   BASIS   6-311+G(2df,2pd)
   UNRESTRICTED   False
   max_scf_cycles   250
   geom_opt_max_cycles   1500
   basis2 6-31G*
   scf_algorithm rca_diis
   SYM_IGNORE  TRUE
   print_input   true
   geom_opt_dmax   80
   pop_mulliken false
   XC_GRID 000075000302
$end

$molecule
0 1
C       -5.6045323874     0.5195188935     -0.0799600794
C       -4.3255013823     1.3856378147     0.1074229828
H       -6.0101367044     0.2347294781     -1.0495153732
H       -6.4152536327     0.5300719225     0.6461835587
H       -4.4082214429     -0.3644724229     0.2892307641
O       -3.2875438107     -0.0658533435     0.5817721996
H       -4.1920860269     2.0972811927     0.9205189660
H       -3.8008873839     1.8154180125     -0.7477680021
H       -2.6365696261     -0.2891942904     -0.0949948532
$end
--------------------------------------------------------------

             Standard Nuclear Orientation (Angstroms)
    I     Atom           X                Y                Z
 ----------------------------------------------------------------
    1      C      -5.6045323874     0.5195188935    -0.0799600794
    2      C      -4.3255013823     1.3856378147     0.1074229828
    3      H      -6.0101367044     0.2347294781    -1.0495153732
    4      H      -6.4152536327     0.5300719225     0.6461835587
    5      H      -4.4082214429    -0.3644724229     0.2892307641
    6      O      -3.2875438107    -0.0658533435     0.5817721996
    7      H      -4.1920860269     2.0972811927     0.9205189660
    8      H      -3.8008873839     1.8154180125    -0.7477680021
    9      H      -2.6365696261    -0.2891942904    -0.0949948532
 ----------------------------------------------------------------

    7    -154.8424106241      4.71E-05 Convergence criterion met
    8    -154.9171120016      2.51E-06 Convergence criterion met
 Total energy in the final basis set = -154.91711200

                    Orbital Energies (a.u.)
 --------------------------------------------------------------

 Alpha MOs
 -- Occupied --
-19.2706 -10.3734 -10.2630  -1.1114  -0.8402  -0.7052  -0.6249  -0.5466
 -0.5000  -0.4611  -0.4497  -0.4391  -0.2896

                    Cartesian Multipole Moments
 -----------------------------------------------------------------
    Charge (ESU x 10^10)
                 0.0000
    Dipole Moment (Debye)
         X       1.3162      Y       0.9096      Z      -1.2632
       Tot       2.0385
    Quadrupole Moments (Debye-Ang)
        XX     -31.8211     XY      -2.8997     YY     -18.9467
        XZ       2.7967     YZ       1.1458     ZZ     -21.4735

 Total job time:  17.09s(wall), 89.45s(cpu)
        *  Thank you very much for using Q-Chem.  Have a nice day.  *
