 Q-Chem 5.3 (devel), Q-Chem, Inc., Pleasanton, CA (2020)
 Q-Chem 5.3.0 for Intel X86 EM64T Linux

User input:
--------------------------------------------------------------
$rem
   JOBTYPE  sp
   EXCHANGE   omegaB97X-D
   BASIS   6-311+G(2df,2pd)
   UNRESTRICTED   False
   max_scf_cycles   250
   geom_opt_max_cycles   1500
   basis2 6-31G*
   scf_algorithm rca_diis
   SYM_IGNORE  TRUE
   print_input   true
   geom_opt_dmax   80
   pop_mulliken false
   XC_GRID 000075000302
$end

$molecule
0 1
C       -5.4687655902     0.5039759986     -0.0757022282
C       -4.4027240901     1.4320413762     0.0617837052
H       -5.8222162189     0.2842367636     -1.0748106496
H       -6.2217566504     0.4918092332     0.7018832569
H       -4.4564206187     -0.3114101024     0.3369046280
O       -3.3289363887     0.0014201801     0.6023090775
H       -4.2857158990     2.0332769788     0.9540174702
H       -3.8611913751     1.8043064606     -0.8005213044
H       -2.8330055662     -0.3765196317     -0.1329737923
$end
--------------------------------------------------------------

             Standard Nuclear Orientation (Angstroms)
    I     Atom           X                Y                Z
 ----------------------------------------------------------------
    1      C      -5.4687655902     0.5039759986    -0.0757022282
    2      C      -4.4027240901     1.4320413762     0.0617837052
    3      H      -5.8222162189     0.2842367636    -1.0748106496
    4      H      -6.2217566504     0.4918092332     0.7018832569
    5      H      -4.4564206187    -0.3114101024     0.3369046280
    6      O      -3.3289363887     0.0014201801     0.6023090775
    7      H      -4.2857158990     2.0332769788     0.9540174702
    8      H      -3.8611913751     1.8043064606    -0.8005213044
    9      H      -2.8330055662    -0.3765196317    -0.1329737923
 ----------------------------------------------------------------

    7    -154.8571894833      3.73E-05 Convergence criterion met
    7    -154.9316736320      7.39E-06 Convergence criterion met
 Total energy in the final basis set = -154.93167363

                    Orbital Energies (a.u.)
 --------------------------------------------------------------

 Alpha MOs
 -- Occupied --
-19.2436 -10.3554 -10.2484  -1.0968  -0.8695  -0.7014  -0.6046  -0.5648
 -0.5058  -0.4680  -0.4463  -0.4326  -0.2953

                    Cartesian Multipole Moments
 -----------------------------------------------------------------
    Charge (ESU x 10^10)
                -0.0000
    Dipole Moment (Debye)
         X       0.3418      Y       0.8552      Z      -1.4310
       Tot       1.7017
    Quadrupole Moments (Debye-Ang)
        XX     -24.7309     XY      -3.3702     YY     -18.3768
        XZ       3.0505     YZ       0.9404     ZZ     -20.7016

 Total job time:  14.64s(wall), 77.09s(cpu)
        *  Thank you very much for using Q-Chem.  Have a nice day.  *
