 Q-Chem 5.3 (devel), Q-Chem, Inc., Pleasanton, CA (2020)
 Q-Chem 5.3.0 for Intel X86 EM64T Linux

User input:
--------------------------------------------------------------
$rem
   JOBTYPE  sp
   EXCHANGE   omegaB97X-D
   BASIS   6-311+G(2df,2pd)
   UNRESTRICTED   False
   max_scf_cycles   250
   geom_opt_max_cycles   1500
   basis2 6-31G*
   scf_algorithm rca_diis
   SYM_IGNORE  TRUE
   print_input   true
   geom_opt_dmax   80
   pop_mulliken false
   XC_GRID 000075000302
$end

$molecule
0 1
C       -5.6168926482     0.5777072571     -0.0683207771
C       -4.4223166767     1.3001694856     0.0665033989
H       -5.9700620498     0.3503560405     -1.0659259712
H       -6.3641739966     0.6400866313     0.7104138465
H       -4.4695195897     -0.3011579087     0.2322836558
O       -3.2475121903     -0.0400178339     0.5563515245
H       -4.2348582640     1.8867756278     0.9532145209
H       -3.8851127865     1.6229060366     -0.8149663400
H       -2.4702841954     -0.1736880792     0.0033363049
$end
--------------------------------------------------------------

             Standard Nuclear Orientation (Angstroms)
    I     Atom           X                Y                Z
 ----------------------------------------------------------------
    1      C      -5.6168926482     0.5777072571    -0.0683207771
    2      C      -4.4223166767     1.3001694856     0.0665033989
    3      H      -5.9700620498     0.3503560405    -1.0659259712
    4      H      -6.3641739966     0.6400866313     0.7104138465
    5      H      -4.4695195897    -0.3011579087     0.2322836558
    6      O      -3.2475121903    -0.0400178339     0.5563515245
    7      H      -4.2348582640     1.8867756278     0.9532145209
    8      H      -3.8851127865     1.6229060366    -0.8149663400
    9      H      -2.4702841954    -0.1736880792     0.0033363049
 ----------------------------------------------------------------

    7    -154.8552473116      4.78E-05 Convergence criterion met
    7    -154.9324690327      8.53E-06 Convergence criterion met
 Total energy in the final basis set = -154.93246903

                    Orbital Energies (a.u.)
 --------------------------------------------------------------

 Alpha MOs
 -- Occupied --
-19.2362 -10.3527 -10.2642  -1.0786  -0.8811  -0.6958  -0.6147  -0.5739
 -0.5109  -0.4572  -0.4305  -0.4123  -0.3131

                    Cartesian Multipole Moments
 -----------------------------------------------------------------
    Charge (ESU x 10^10)
                -0.0000
    Dipole Moment (Debye)
         X       0.4157      Y       1.1251      Z      -1.4009
       Tot       1.8442
    Quadrupole Moments (Debye-Ang)
        XX     -22.9793     XY      -4.3301     YY     -19.6696
        XZ       3.3567     YZ       0.8936     ZZ     -20.8919

 Total job time:  14.68s(wall), 77.36s(cpu)
        *  Thank you very much for using Q-Chem.  Have a nice day.  *
