 Q-Chem 5.3 (devel), Q-Chem, Inc., Pleasanton, CA (2020)
 Q-Chem 5.3.0 for Intel X86 EM64T Linux

User input:
--------------------------------------------------------------
$rem
   JOBTYPE  sp
   EXCHANGE   omegaB97X-D
   BASIS   6-311+G(2df,2pd)
   UNRESTRICTED   False
   max_scf_cycles   250
   geom_opt_max_cycles   1500
   basis2 6-31G*
   scf_algorithm rca_diis
   SYM_IGNORE  TRUE
   print_input   true
   geom_opt_dmax   80
   pop_mulliken false
   XC_GRID 000075000302
$end

$molecule
0 1
C       -5.5504468344     0.5414795504     -0.0545195503
C       -4.4098525484     1.3641622521     0.0586412174
H       -5.9249402735     0.2990857431     -1.1065847569
H       -6.2537609206     0.5721160586     0.6769510118
H       -4.4689357094     -0.3084626057     0.2987295098
O       -3.2925492424     -0.0188597509     0.5870198199
H       -4.2458266354     1.9898705133     0.9846793690
H       -3.8878028799     1.6950855788     -0.7894611894
H       -2.6466173534     -0.2713400827     -0.0825652680
$end
--------------------------------------------------------------

             Standard Nuclear Orientation (Angstroms)
    I     Atom           X                Y                Z
 ----------------------------------------------------------------
    1      C      -5.5504468344     0.5414795504    -0.0545195503
    2      C      -4.4098525484     1.3641622521     0.0586412174
    3      H      -5.9249402735     0.2990857431    -1.1065847569
    4      H      -6.2537609206     0.5721160586     0.6769510118
    5      H      -4.4689357094    -0.3084626057     0.2987295098
    6      O      -3.2925492424    -0.0188597509     0.5870198199
    7      H      -4.2458266354     1.9898705133     0.9846793690
    8      H      -3.8878028799     1.6950855788    -0.7894611894
    9      H      -2.6466173534    -0.2713400827    -0.0825652680
 ----------------------------------------------------------------

    7    -154.8543998864      4.11E-05 Convergence criterion met
    7    -154.9300289665      8.22E-06 Convergence criterion met
 Total energy in the final basis set = -154.93002897

                    Orbital Energies (a.u.)
 --------------------------------------------------------------

 Alpha MOs
 -- Occupied --
-19.2425 -10.3553 -10.2535  -1.0884  -0.8746  -0.6988  -0.6110  -0.5691
 -0.5054  -0.4604  -0.4362  -0.4278  -0.3053

                    Cartesian Multipole Moments
 -----------------------------------------------------------------
    Charge (ESU x 10^10)
                 0.0000
    Dipole Moment (Debye)
         X       0.4782      Y       0.9559      Z      -1.4401
       Tot       1.7934
    Quadrupole Moments (Debye-Ang)
        XX     -24.7439     XY      -3.7383     YY     -19.0999
        XZ       3.2009     YZ       0.8939     ZZ     -20.7930

 Total job time:  19.28s(wall), 100.77s(cpu)
        *  Thank you very much for using Q-Chem.  Have a nice day.  *
