 Q-Chem 5.3 (devel), Q-Chem, Inc., Pleasanton, CA (2020)
 Q-Chem 5.3.0 for Intel X86 EM64T Linux

User input:
--------------------------------------------------------------
$rem
   JOBTYPE  sp
   EXCHANGE   omegaB97X-D
   BASIS   6-311+G(2df,2pd)
   UNRESTRICTED   False
   max_scf_cycles   250
   geom_opt_max_cycles   1500
   basis2 6-31G*
   scf_algorithm rca_diis
   SYM_IGNORE  TRUE
   print_input   true
   geom_opt_dmax   80
   pop_mulliken false
   XC_GRID 000075000302
$end

$molecule
0 1
C       -5.5395921787     0.5481441902     -0.0715374613
C       -4.4315387345     1.4047197597     0.0551559842
H       -5.8884269960     0.2995108490     -1.0654569892
H       -6.2802151732     0.5374206395     0.7166297772
H       -4.5174504904     -0.2636596653     0.2595853568
O       -3.2639125304     -0.0628519834     0.5963793460
H       -4.2630471913     1.9792645694     0.9540330643
H       -3.8917020900     1.7464609133     -0.8178146949
H       -2.6048470127     -0.3258720154     -0.0540842198
$end
--------------------------------------------------------------

             Standard Nuclear Orientation (Angstroms)
    I     Atom           X                Y                Z
 ----------------------------------------------------------------
    1      C      -5.5395921787     0.5481441902    -0.0715374613
    2      C      -4.4315387345     1.4047197597     0.0551559842
    3      H      -5.8884269960     0.2995108490    -1.0654569892
    4      H      -6.2802151732     0.5374206395     0.7166297772
    5      H      -4.5174504904    -0.2636596653     0.2595853568
    6      O      -3.2639125304    -0.0628519834     0.5963793460
    7      H      -4.2630471913     1.9792645694     0.9540330643
    8      H      -3.8917020900     1.7464609133    -0.8178146949
    9      H      -2.6048470127    -0.3258720154    -0.0540842198
 ----------------------------------------------------------------

    7    -154.8603559775      5.12E-05 Convergence criterion met
    8    -154.9365521397      7.02E-06 Convergence criterion met
 Total energy in the final basis set = -154.93655214

                    Orbital Energies (a.u.)
 --------------------------------------------------------------

 Alpha MOs
 -- Occupied --
-19.2209 -10.3599 -10.2655  -1.0594  -0.8849  -0.7042  -0.5951  -0.5735
 -0.5096  -0.4600  -0.4380  -0.4004  -0.3131

                    Cartesian Multipole Moments
 -----------------------------------------------------------------
    Charge (ESU x 10^10)
                 0.0000
    Dipole Moment (Debye)
         X      -0.2549      Y       1.2736      Z      -1.6544
       Tot       2.1033
    Quadrupole Moments (Debye-Ang)
        XX     -18.2812     XY      -5.1446     YY     -18.5135
        XZ       3.9387     YZ       0.9764     ZZ     -20.8140

 Total job time:  13.32s(wall), 70.69s(cpu)
        *  Thank you very much for using Q-Chem.  Have a nice day.  *
