 Q-Chem 5.3 (devel), Q-Chem, Inc., Pleasanton, CA (2020)
 Q-Chem 5.3.0 for Intel X86 EM64T Linux

User input:
--------------------------------------------------------------
$rem
   JOBTYPE  sp
   EXCHANGE   omegaB97X-D
   BASIS   6-311+G(2df,2pd)
   UNRESTRICTED   False
   max_scf_cycles   250
   geom_opt_max_cycles   1500
   basis2 6-31G*
   scf_algorithm rca_diis
   SYM_IGNORE  TRUE
   print_input   true
   geom_opt_dmax   80
   pop_mulliken false
   XC_GRID 000075000302
$end

$molecule
0 1
C       -5.5427590168     0.5355584332     -0.0698083472
C       -4.4155588296     1.3578949437     0.0692089994
H       -5.9096474820     0.3028326963     -1.1035344409
H       -6.3226426165     0.5607334766     0.7332988712
H       -4.4667952215     -0.3124199796     0.2903069983
O       -3.2923978376     -0.0221421558     0.5881270491
H       -4.2541160563     1.9843467122     1.0002433447
H       -3.8354861718     1.7299002028     -0.8588348275
H       -2.6413291651     -0.2735670723     -0.0761174838
$end
--------------------------------------------------------------

             Standard Nuclear Orientation (Angstroms)
    I     Atom           X                Y                Z
 ----------------------------------------------------------------
    1      C      -5.5427590168     0.5355584332    -0.0698083472
    2      C      -4.4155588296     1.3578949437     0.0692089994
    3      H      -5.9096474820     0.3028326963    -1.1035344409
    4      H      -6.3226426165     0.5607334766     0.7332988712
    5      H      -4.4667952215    -0.3124199796     0.2903069983
    6      O      -3.2923978376    -0.0221421558     0.5881270491
    7      H      -4.2541160563     1.9843467122     1.0002433447
    8      H      -3.8354861718     1.7299002028    -0.8588348275
    9      H      -2.6413291651    -0.2735670723    -0.0761174838
 ----------------------------------------------------------------

    7    -154.8565328374      4.14E-05 Convergence criterion met
    7    -154.9309917697      8.44E-06 Convergence criterion met
 Total energy in the final basis set = -154.93099177

                    Orbital Energies (a.u.)
 --------------------------------------------------------------

 Alpha MOs
 -- Occupied --
-19.2421 -10.3658 -10.2627  -1.0882  -0.8718  -0.6830  -0.6087  -0.5594
 -0.5044  -0.4543  -0.4321  -0.4264  -0.3062

                    Cartesian Multipole Moments
 -----------------------------------------------------------------
    Charge (ESU x 10^10)
                 0.0000
    Dipole Moment (Debye)
         X       0.4499      Y       0.9234      Z      -1.4315
       Tot       1.7619
    Quadrupole Moments (Debye-Ang)
        XX     -24.5427     XY      -3.6047     YY     -19.3330
        XZ       3.1685     YZ       0.9592     ZZ     -20.8332

 Total job time:  17.62s(wall), 92.13s(cpu)
        *  Thank you very much for using Q-Chem.  Have a nice day.  *
