 Q-Chem 5.3 (devel), Q-Chem, Inc., Pleasanton, CA (2020)
 Q-Chem 5.3.0 for Intel X86 EM64T Linux

User input:
--------------------------------------------------------------
$rem
   JOBTYPE  sp
   EXCHANGE   omegaB97X-D
   BASIS   6-311+G(2df,2pd)
   UNRESTRICTED   False
   max_scf_cycles   250
   geom_opt_max_cycles   1500
   basis2 6-31G*
   scf_algorithm rca_diis
   SYM_IGNORE  TRUE
   print_input   true
   geom_opt_dmax   80
   pop_mulliken false
   XC_GRID 000075000302
$end

$molecule
0 1
C       -5.5395482477     0.5311405300     -0.0668771655
C       -4.4207333289     1.3492243189     0.0732150513
H       -5.9215373482     0.2901598986     -1.1356290607
H       -6.3477361381     0.5541478450     0.7617280688
H       -4.4667338428     -0.3158145563     0.2912170162
O       -3.2919204039     -0.0254797223     0.5893961060
H       -4.2492081147     2.0069420237     1.0457615710
H       -3.8026355526     1.7486675086     -0.9110514750
H       -2.6406794205     -0.2758505890     -0.0748699488
$end
--------------------------------------------------------------

             Standard Nuclear Orientation (Angstroms)
    I     Atom           X                Y                Z
 ----------------------------------------------------------------
    1      C      -5.5395482477     0.5311405300    -0.0668771655
    2      C      -4.4207333289     1.3492243189     0.0732150513
    3      H      -5.9215373482     0.2901598986    -1.1356290607
    4      H      -6.3477361381     0.5541478450     0.7617280688
    5      H      -4.4667338428    -0.3158145563     0.2912170162
    6      O      -3.2919204039    -0.0254797223     0.5893961060
    7      H      -4.2492081147     2.0069420237     1.0457615710
    8      H      -3.8026355526     1.7486675086    -0.9110514750
    9      H      -2.6406794205    -0.2758505890    -0.0748699488
 ----------------------------------------------------------------

    7    -154.8402573541      4.04E-05 Convergence criterion met
    7    -154.9142091519      8.93E-06 Convergence criterion met
 Total energy in the final basis set = -154.91420915

                    Orbital Energies (a.u.)
 --------------------------------------------------------------

 Alpha MOs
 -- Occupied --
-19.2422 -10.3767 -10.2708  -1.0884  -0.8706  -0.6695  -0.6070  -0.5504
 -0.5024  -0.4532  -0.4256  -0.4227  -0.3076

                    Cartesian Multipole Moments
 -----------------------------------------------------------------
    Charge (ESU x 10^10)
                -0.0000
    Dipole Moment (Debye)
         X       0.4125      Y       0.8763      Z      -1.4094
       Tot       1.7101
    Quadrupole Moments (Debye-Ang)
        XX     -24.2815     XY      -3.4115     YY     -19.5960
        XZ       3.0569     YZ       1.0218     ZZ     -20.8479

 Total job time:  17.39s(wall), 90.51s(cpu)
        *  Thank you very much for using Q-Chem.  Have a nice day.  *
