 Q-Chem 5.3 (devel), Q-Chem, Inc., Pleasanton, CA (2020)
 Q-Chem 5.3.0 for Intel X86 EM64T Linux

User input:
--------------------------------------------------------------
$rem
   JOBTYPE  sp
   EXCHANGE   omegaB97X-D
   BASIS   6-311+G(2df,2pd)
   UNRESTRICTED   False
   max_scf_cycles   250
   geom_opt_max_cycles   1500
   basis2 6-31G*
   scf_algorithm rca_diis
   SYM_IGNORE  TRUE
   print_input   true
   geom_opt_dmax   80
   pop_mulliken false
   XC_GRID 000075000302
$end

$molecule
0 1
C       -5.5386525264     0.5483539670     -0.0244054757
C       -4.3923614333     1.3648433756     0.0477821185
H       -5.9214167002     0.3270023450     -1.0138696549
H       -6.2743789747     0.6186762239     0.7644814144
H       -4.5039112243     -0.4341428810     0.1079695756
O       -3.4355968721     -0.1688965295     0.4445210450
H       -4.1835362547     1.9697044649     0.9197427575
H       -3.9221439471     1.7142449828     -0.8641546602
H       -2.5087344645     -0.0766486916     0.1908230431
$end
--------------------------------------------------------------

             Standard Nuclear Orientation (Angstroms)
    I     Atom           X                Y                Z
 ----------------------------------------------------------------
    1      C      -5.5386525264     0.5483539670    -0.0244054757
    2      C      -4.3923614333     1.3648433756     0.0477821185
    3      H      -5.9214167002     0.3270023450    -1.0138696549
    4      H      -6.2743789747     0.6186762239     0.7644814144
    5      H      -4.5039112243    -0.4341428810     0.1079695756
    6      O      -3.4355968721    -0.1688965295     0.4445210450
    7      H      -4.1835362547     1.9697044649     0.9197427575
    8      H      -3.9221439471     1.7142449828    -0.8641546602
    9      H      -2.5087344645    -0.0766486916     0.1908230431
 ----------------------------------------------------------------

    7    -154.8431907912      4.87E-05 Convergence criterion met
    7    -154.9207234886      5.71E-06 Convergence criterion met
 Total energy in the final basis set = -154.92072349

                    Orbital Energies (a.u.)
 --------------------------------------------------------------

 Alpha MOs
 -- Occupied --
-19.2484 -10.3507 -10.2429  -1.0990  -0.8679  -0.6991  -0.6410  -0.5686
 -0.4940  -0.4478  -0.4434  -0.4190  -0.3005

                    Cartesian Multipole Moments
 -----------------------------------------------------------------
    Charge (ESU x 10^10)
                 0.0000
    Dipole Moment (Debye)
         X       1.3654      Y       1.4110      Z      -0.8529
       Tot       2.1407
    Quadrupole Moments (Debye-Ang)
        XX     -30.8914     XY      -4.5768     YY     -19.2673
        XZ       2.4439     YZ       0.9037     ZZ     -20.7894

 Total job time:  16.23s(wall), 83.85s(cpu)
        *  Thank you very much for using Q-Chem.  Have a nice day.  *
