 Q-Chem 5.3 (devel), Q-Chem, Inc., Pleasanton, CA (2020)
 Q-Chem 5.3.0 for Intel X86 EM64T Linux

User input:
--------------------------------------------------------------
$rem
   JOBTYPE  sp
   EXCHANGE   omegaB97X-D
   BASIS   6-311+G(2df,2pd)
   UNRESTRICTED   False
   max_scf_cycles   250
   geom_opt_max_cycles   1500
   basis2 6-31G*
   scf_algorithm rca_diis
   SYM_IGNORE  TRUE
   print_input   true
   geom_opt_dmax   80
   pop_mulliken false
   XC_GRID 000075000302
$end

$molecule
0 1
C       -5.5825574629     0.4993836266     -0.0919841459
C       -4.4622141438     1.4319049152     0.0174113419
H       -5.9951145720     0.3040755081     -1.0763196613
H       -6.3322155046     0.4936311136     0.6913317888
H       -4.4842520294     -0.2286371897     0.2889716504
O       -3.3214825602     0.0588440907     0.6173187008
H       -4.0639276651     1.8130394224     0.9483929265
H       -3.7856899350     1.6767268201     -0.7923364455
H       -2.6532785242     -0.1858310500     -0.0298959925
$end
--------------------------------------------------------------

             Standard Nuclear Orientation (Angstroms)
    I     Atom           X                Y                Z
 ----------------------------------------------------------------
    1      C      -5.5825574629     0.4993836266    -0.0919841459
    2      C      -4.4622141438     1.4319049152     0.0174113419
    3      H      -5.9951145720     0.3040755081    -1.0763196613
    4      H      -6.3322155046     0.4936311136     0.6913317888
    5      H      -4.4842520294    -0.2286371897     0.2889716504
    6      O      -3.3214825602     0.0588440907     0.6173187008
    7      H      -4.0639276651     1.8130394224     0.9483929265
    8      H      -3.7856899350     1.6767268201    -0.7923364455
    9      H      -2.6532785242    -0.1858310500    -0.0298959925
 ----------------------------------------------------------------

    7    -154.8460723556      4.41E-05 Convergence criterion met
    8    -154.9215768671      2.44E-06 Convergence criterion met
 Total energy in the final basis set = -154.92157687

                    Orbital Energies (a.u.)
 --------------------------------------------------------------

 Alpha MOs
 -- Occupied --
-19.2314 -10.3601 -10.2669  -1.0836  -0.8675  -0.7103  -0.6081  -0.5585
 -0.5086  -0.4631  -0.4375  -0.4079  -0.3100

                    Cartesian Multipole Moments
 -----------------------------------------------------------------
    Charge (ESU x 10^10)
                -0.0000
    Dipole Moment (Debye)
         X       0.4000      Y       0.9732      Z      -1.5149
       Tot       1.8445
    Quadrupole Moments (Debye-Ang)
        XX     -23.4895     XY      -3.3665     YY     -19.5299
        XZ       3.7474     YZ       0.5558     ZZ     -21.0918

 Total job time:  17.01s(wall), 90.26s(cpu)
        *  Thank you very much for using Q-Chem.  Have a nice day.  *
