 Q-Chem 5.3 (devel), Q-Chem, Inc., Pleasanton, CA (2020)
 Q-Chem 5.3.0 for Intel X86 EM64T Linux

User input:
--------------------------------------------------------------
$rem
   JOBTYPE  sp
   EXCHANGE   omegaB97X-D
   BASIS   6-311+G(2df,2pd)
   UNRESTRICTED   False
   max_scf_cycles   250
   geom_opt_max_cycles   1500
   basis2 6-31G*
   scf_algorithm rca_diis
   SYM_IGNORE  TRUE
   print_input   true
   geom_opt_dmax   80
   pop_mulliken false
   XC_GRID 000075000302
$end

$molecule
0 1
C       -5.5306440458     0.5458487733     -0.0679758601
C       -4.4232725506     1.3522896111     0.0668559288
H       -5.9347878822     0.2964896142     -1.0403090528
H       -6.3261963674     0.5523030323     0.6644105455
H       -4.4747818318     -0.3406780601     0.2873446012
O       -3.2904243013     -0.0164843482     0.5891456412
H       -4.2153834057     1.9887295801     0.9153977353
H       -3.8412253789     1.7436968719     -0.7584934614
H       -2.6440166335     -0.2590578176     -0.0834859144
$end
--------------------------------------------------------------

             Standard Nuclear Orientation (Angstroms)
    I     Atom           X                Y                Z
 ----------------------------------------------------------------
    1      C      -5.5306440458     0.5458487733    -0.0679758601
    2      C      -4.4232725506     1.3522896111     0.0668559288
    3      H      -5.9347878822     0.2964896142    -1.0403090528
    4      H      -6.3261963674     0.5523030323     0.6644105455
    5      H      -4.4747818318    -0.3406780601     0.2873446012
    6      O      -3.2904243013    -0.0164843482     0.5891456412
    7      H      -4.2153834057     1.9887295801     0.9153977353
    8      H      -3.8412253789     1.7436968719    -0.7584934614
    9      H      -2.6440166335    -0.2590578176    -0.0834859144
 ----------------------------------------------------------------

    7    -154.8583716852      3.61E-05 Convergence criterion met
    7    -154.9338371586      7.05E-06 Convergence criterion met
 Total energy in the final basis set = -154.93383716

                    Orbital Energies (a.u.)
 --------------------------------------------------------------

 Alpha MOs
 -- Occupied --
-19.2414 -10.3506 -10.2535  -1.0862  -0.8788  -0.7034  -0.6091  -0.5617
 -0.5192  -0.4565  -0.4316  -0.4275  -0.3077

                    Cartesian Multipole Moments
 -----------------------------------------------------------------
    Charge (ESU x 10^10)
                 0.0000
    Dipole Moment (Debye)
         X       0.3751      Y       0.9366      Z      -1.4796
       Tot       1.7908
    Quadrupole Moments (Debye-Ang)
        XX     -23.4471     XY      -3.4913     YY     -18.8464
        XZ       3.5122     YZ       0.8590     ZZ     -21.1991

 Total job time:  17.60s(wall), 92.04s(cpu)
        *  Thank you very much for using Q-Chem.  Have a nice day.  *
