 Q-Chem 5.3 (devel), Q-Chem, Inc., Pleasanton, CA (2020)
 Q-Chem 5.3.0 for Intel X86 EM64T Linux

User input:
--------------------------------------------------------------
$rem
   JOBTYPE  sp
   EXCHANGE   omegaB97X-D
   BASIS   6-311+G(2df,2pd)
   UNRESTRICTED   False
   max_scf_cycles   250
   geom_opt_max_cycles   1500
   basis2 6-31G*
   scf_algorithm rca_diis
   SYM_IGNORE  TRUE
   print_input   true
   geom_opt_dmax   80
   pop_mulliken false
   XC_GRID 000075000302
$end

$molecule
0 1
C       -5.5271561040     0.5342188191     -0.0713992923
C       -4.3860401023     1.3498795010     0.1121751707
H       -5.9421210053     0.3406750985     -1.0518794097
H       -6.2288352935     0.5498681600     0.7521042368
H       -4.4461438829     -0.3225809703     0.2271377998
O       -3.2732771481     -0.0547321374     0.5837754868
H       -4.4688968043     2.1245277327     0.8674200596
H       -3.7103457161     1.6111454092     -0.6864052058
H       -2.6979163407     -0.2698643556     -0.1600386825
$end
--------------------------------------------------------------

             Standard Nuclear Orientation (Angstroms)
    I     Atom           X                Y                Z
 ----------------------------------------------------------------
    1      C      -5.5271561040     0.5342188191    -0.0713992923
    2      C      -4.3860401023     1.3498795010     0.1121751707
    3      H      -5.9421210053     0.3406750985    -1.0518794097
    4      H      -6.2288352935     0.5498681600     0.7521042368
    5      H      -4.4461438829    -0.3225809703     0.2271377998
    6      O      -3.2732771481    -0.0547321374     0.5837754868
    7      H      -4.4688968043     2.1245277327     0.8674200596
    8      H      -3.7103457161     1.6111454092    -0.6864052058
    9      H      -2.6979163407    -0.2698643556    -0.1600386825
 ----------------------------------------------------------------

    7    -154.8511495791      4.22E-05 Convergence criterion met
    7    -154.9262269162      7.71E-06 Convergence criterion met
 Total energy in the final basis set = -154.92622692

                    Orbital Energies (a.u.)
 --------------------------------------------------------------

 Alpha MOs
 -- Occupied --
-19.2471 -10.3568 -10.2540  -1.0931  -0.8753  -0.6985  -0.6046  -0.5733
 -0.5104  -0.4650  -0.4478  -0.4175  -0.3035

                    Cartesian Multipole Moments
 -----------------------------------------------------------------
    Charge (ESU x 10^10)
                 0.0000
    Dipole Moment (Debye)
         X       0.3507      Y       1.0970      Z      -1.5202
       Tot       1.9072
    Quadrupole Moments (Debye-Ang)
        XX     -23.8982     XY      -4.4928     YY     -18.8983
        XZ       3.2492     YZ       1.1985     ZZ     -20.9599

 Total job time:  19.35s(wall), 101.55s(cpu)
        *  Thank you very much for using Q-Chem.  Have a nice day.  *
