 Q-Chem 5.3 (devel), Q-Chem, Inc., Pleasanton, CA (2020)
 Q-Chem 5.3.0 for Intel X86 EM64T Linux

User input:
--------------------------------------------------------------
$rem
   JOBTYPE  sp
   EXCHANGE   omegaB97X-D
   BASIS   6-311+G(2df,2pd)
   UNRESTRICTED   False
   max_scf_cycles   250
   geom_opt_max_cycles   1500
   basis2 6-31G*
   scf_algorithm rca_diis
   SYM_IGNORE  TRUE
   print_input   true
   geom_opt_dmax   80
   pop_mulliken false
   XC_GRID 000075000302
$end

$molecule
0 1
C       -5.5398952055     0.5376195695     -0.0728547014
C       -4.4019713264     1.3604572672     0.0787828625
H       -5.9134926270     0.3222083136     -1.0655159008
H       -6.2749358323     0.5630345541     0.7205545383
H       -4.4598408491     -0.3137429060     0.2690099602
O       -3.2860518213     -0.0293109461     0.5854116721
H       -4.3314704384     2.0188454786     0.9348882034
H       -3.8132937438     1.6763791260     -0.7714399701
H       -2.6597805536     -0.2723531997     -0.1059465009
$end
--------------------------------------------------------------

             Standard Nuclear Orientation (Angstroms)
    I     Atom           X                Y                Z
 ----------------------------------------------------------------
    1      C      -5.5398952055     0.5376195695    -0.0728547014
    2      C      -4.4019713264     1.3604572672     0.0787828625
    3      H      -5.9134926270     0.3222083136    -1.0655159008
    4      H      -6.2749358323     0.5630345541     0.7205545383
    5      H      -4.4598408491    -0.3137429060     0.2690099602
    6      O      -3.2860518213    -0.0293109461     0.5854116721
    7      H      -4.3314704384     2.0188454786     0.9348882034
    8      H      -3.8132937438     1.6763791260    -0.7714399701
    9      H      -2.6597805536    -0.2723531997    -0.1059465009
 ----------------------------------------------------------------

    7    -154.8609997955      4.10E-05 Convergence criterion met
    7    -154.9362053651      4.16E-06 Convergence criterion met
 Total energy in the final basis set = -154.93620537

                    Orbital Energies (a.u.)
 --------------------------------------------------------------

 Alpha MOs
 -- Occupied --
-19.2441 -10.3553 -10.2540  -1.0901  -0.8746  -0.6978  -0.6085  -0.5713
 -0.5074  -0.4598  -0.4416  -0.4266  -0.3046

                    Cartesian Multipole Moments
 -----------------------------------------------------------------
    Charge (ESU x 10^10)
                -0.0000
    Dipole Moment (Debye)
         X       0.4405      Y       1.0039      Z      -1.4731
       Tot       1.8362
    Quadrupole Moments (Debye-Ang)
        XX     -24.4997     XY      -3.9933     YY     -18.9993
        XZ       3.2313     YZ       1.0278     ZZ     -20.8418

 Total job time:  14.66s(wall), 76.52s(cpu)
        *  Thank you very much for using Q-Chem.  Have a nice day.  *
