 Q-Chem 5.3 (devel), Q-Chem, Inc., Pleasanton, CA (2020)
 Q-Chem 5.3.0 for Intel X86 EM64T Linux

User input:
--------------------------------------------------------------
$rem
   JOBTYPE  sp
   EXCHANGE   omegaB97X-D
   BASIS   6-311+G(2df,2pd)
   UNRESTRICTED   False
   max_scf_cycles   250
   geom_opt_max_cycles   1500
   basis2 6-31G*
   scf_algorithm rca_diis
   SYM_IGNORE  TRUE
   print_input   true
   geom_opt_dmax   80
   pop_mulliken false
   XC_GRID 000075000302
$end

$molecule
0 1
C       -5.5428204076     0.5375931146     -0.1228225851
C       -4.4046821654     1.3610542428     -0.0043845717
H       -6.0213030487     0.1900405638     -1.0269111876
H       -6.1893974821     0.7108028917     0.7295566296
H       -4.4685802460     -0.3048365960     0.2746509847
O       -3.2958333638     -0.0087716249     0.5620657625
H       -4.3961963490     1.8389895775     0.9648890322
H       -3.7476457321     1.8111555347     -0.7382231538
H       -2.6142736025     -0.2728904471     -0.0659307474
$end
--------------------------------------------------------------

             Standard Nuclear Orientation (Angstroms)
    I     Atom           X                Y                Z
 ----------------------------------------------------------------
    1      C      -5.5428204076     0.5375931146    -0.1228225851
    2      C      -4.4046821654     1.3610542428    -0.0043845717
    3      H      -6.0213030487     0.1900405638    -1.0269111876
    4      H      -6.1893974821     0.7108028917     0.7295566296
    5      H      -4.4685802460    -0.3048365960     0.2746509847
    6      O      -3.2958333638    -0.0087716249     0.5620657625
    7      H      -4.3961963490     1.8389895775     0.9648890322
    8      H      -3.7476457321     1.8111555347    -0.7382231538
    9      H      -2.6142736025    -0.2728904471    -0.0659307474
 ----------------------------------------------------------------

    7    -154.8542119933      4.15E-05 Convergence criterion met
    7    -154.9299824227      8.19E-06 Convergence criterion met
 Total energy in the final basis set = -154.92998242

                    Orbital Energies (a.u.)
 --------------------------------------------------------------

 Alpha MOs
 -- Occupied --
-19.2411 -10.3534 -10.2556  -1.0878  -0.8769  -0.6968  -0.6122  -0.5701
 -0.5119  -0.4499  -0.4355  -0.4262  -0.3065

                    Cartesian Multipole Moments
 -----------------------------------------------------------------
    Charge (ESU x 10^10)
                 0.0000
    Dipole Moment (Debye)
         X       0.5273      Y       0.8829      Z      -1.3856
       Tot       1.7255
    Quadrupole Moments (Debye-Ang)
        XX     -24.8456     XY      -3.4274     YY     -19.0817
        XZ       3.0121     YZ       0.9825     ZZ     -20.9795

 Total job time:  15.46s(wall), 78.63s(cpu)
        *  Thank you very much for using Q-Chem.  Have a nice day.  *
