 Q-Chem 5.3 (devel), Q-Chem, Inc., Pleasanton, CA (2020)
 Q-Chem 5.3.0 for Intel X86 EM64T Linux

User input:
--------------------------------------------------------------
$rem
   JOBTYPE  sp
   EXCHANGE   omegaB97X-D
   BASIS   6-311+G(2df,2pd)
   UNRESTRICTED   False
   max_scf_cycles   250
   geom_opt_max_cycles   1500
   basis2 6-31G*
   scf_algorithm rca_diis
   SYM_IGNORE  TRUE
   print_input   true
   geom_opt_dmax   80
   pop_mulliken false
   XC_GRID 000075000302
$end

$molecule
0 1
C       -5.5391908159     0.5388248405     -0.1164086437
C       -4.4246831761     1.3743988173     0.0928139889
H       -5.9439364137     0.3113094778     -1.0931894713
H       -6.2468951425     0.5719305546     0.7019360743
H       -4.4710530487     -0.3069779320     0.2899996716
O       -3.2951899126     -0.0120214904     0.5776872526
H       -4.2363468272     1.9760341133     0.9710909581
H       -3.9056457690     1.6959328858     -0.8009864075
H       -2.6177912917     -0.2862940099     -0.0500532599
$end
--------------------------------------------------------------

             Standard Nuclear Orientation (Angstroms)
    I     Atom           X                Y                Z
 ----------------------------------------------------------------
    1      C      -5.5391908159     0.5388248405    -0.1164086437
    2      C      -4.4246831761     1.3743988173     0.0928139889
    3      H      -5.9439364137     0.3113094778    -1.0931894713
    4      H      -6.2468951425     0.5719305546     0.7019360743
    5      H      -4.4710530487    -0.3069779320     0.2899996716
    6      O      -3.2951899126    -0.0120214904     0.5776872526
    7      H      -4.2363468272     1.9760341133     0.9710909581
    8      H      -3.9056457690     1.6959328858    -0.8009864075
    9      H      -2.6177912917    -0.2862940099    -0.0500532599
 ----------------------------------------------------------------

    7    -154.8588638015      4.03E-05 Convergence criterion met
    7    -154.9345436924      4.11E-06 Convergence criterion met
 Total energy in the final basis set = -154.93454369

                    Orbital Energies (a.u.)
 --------------------------------------------------------------

 Alpha MOs
 -- Occupied --
-19.2402 -10.3534 -10.2547  -1.0863  -0.8755  -0.6970  -0.6125  -0.5696
 -0.5100  -0.4481  -0.4407  -0.4256  -0.3058

                    Cartesian Multipole Moments
 -----------------------------------------------------------------
    Charge (ESU x 10^10)
                 0.0000
    Dipole Moment (Debye)
         X       0.4769      Y       0.9260      Z      -1.3731
       Tot       1.7234
    Quadrupole Moments (Debye-Ang)
        XX     -24.6232     XY      -3.6926     YY     -19.0226
        XZ       3.2742     YZ       1.0639     ZZ     -20.7441

 Total job time:  17.05s(wall), 88.21s(cpu)
        *  Thank you very much for using Q-Chem.  Have a nice day.  *
