 Q-Chem 5.3 (devel), Q-Chem, Inc., Pleasanton, CA (2020)
 Q-Chem 5.3.0 for Intel X86 EM64T Linux

User input:
--------------------------------------------------------------
$rem
   JOBTYPE  sp
   EXCHANGE   omegaB97X-D
   BASIS   6-311+G(2df,2pd)
   UNRESTRICTED   False
   max_scf_cycles   250
   geom_opt_max_cycles   1500
   basis2 6-31G*
   scf_algorithm rca_diis
   SYM_IGNORE  TRUE
   print_input   true
   geom_opt_dmax   80
   pop_mulliken false
   XC_GRID 000075000302
$end

$molecule
0 1
C       -5.5335768223     0.5357046416     -0.0724047252
C       -4.3937916631     1.3548958883     0.0944826706
H       -5.9281792256     0.3306801264     -1.0590296210
H       -6.2519402119     0.5572805413     0.7363481871
H       -4.4529200461     -0.3183295636     0.2482359227
O       -3.2794926335     -0.0413612835     0.5844171439
H       -4.4018088404     2.0733360991     0.9057337716
H       -3.7606061926     1.6428975016     -0.7313617049
H       -2.6784167617     -0.2719666940     -0.1335314815
$end
--------------------------------------------------------------

             Standard Nuclear Orientation (Angstroms)
    I     Atom           X                Y                Z
 ----------------------------------------------------------------
    1      C      -5.5335768223     0.5357046416    -0.0724047252
    2      C      -4.3937916631     1.3548958883     0.0944826706
    3      H      -5.9281792256     0.3306801264    -1.0590296210
    4      H      -6.2519402119     0.5572805413     0.7363481871
    5      H      -4.4529200461    -0.3183295636     0.2482359227
    6      O      -3.2794926335    -0.0413612835     0.5844171439
    7      H      -4.4018088404     2.0733360991     0.9057337716
    8      H      -3.7606061926     1.6428975016    -0.7313617049
    9      H      -2.6784167617    -0.2719666940    -0.1335314815
 ----------------------------------------------------------------

    7    -154.8573475611      4.14E-05 Convergence criterion met
    7    -154.9324584356      4.26E-06 Convergence criterion met
 Total energy in the final basis set = -154.93245844

                    Orbital Energies (a.u.)
 --------------------------------------------------------------

 Alpha MOs
 -- Occupied --
-19.2457 -10.3562 -10.2539  -1.0917  -0.8750  -0.6981  -0.6063  -0.5726
 -0.5088  -0.4624  -0.4449  -0.4227  -0.3041

                    Cartesian Multipole Moments
 -----------------------------------------------------------------
    Charge (ESU x 10^10)
                 0.0000
    Dipole Moment (Debye)
         X       0.3972      Y       1.0497      Z      -1.4968
       Tot       1.8708
    Quadrupole Moments (Debye-Ang)
        XX     -24.2236     XY      -4.2397     YY     -18.9380
        XZ       3.2242     YZ       1.1277     ZZ     -20.8932

 Total job time:  15.46s(wall), 81.19s(cpu)
        *  Thank you very much for using Q-Chem.  Have a nice day.  *
