 Q-Chem 5.3 (devel), Q-Chem, Inc., Pleasanton, CA (2020)
 Q-Chem 5.3.0 for Intel X86 EM64T Linux

User input:
--------------------------------------------------------------
$rem
   JOBTYPE  sp
   EXCHANGE   omegaB97X-D
   BASIS   6-311+G(2df,2pd)
   UNRESTRICTED   False
   max_scf_cycles   250
   geom_opt_max_cycles   1500
   basis2 6-31G*
   scf_algorithm rca_diis
   SYM_IGNORE  TRUE
   print_input   true
   geom_opt_dmax   80
   pop_mulliken false
   XC_GRID 000075000302
$end

$molecule
0 1
C       -5.5206597869     0.5643711340     -0.0685619857
C       -4.4793833778     1.4883271521     0.0374062178
H       -5.8558300170     0.2627554076     -1.0523130473
H       -6.2348110410     0.4739267011     0.7381678723
H       -4.6059996493     -0.1616203788     0.2073035323
O       -3.2137259733     -0.1644165988     0.6108030389
H       -4.2821825797     2.0263702589     0.9507970490
H       -3.9463003274     1.8263432236     -0.8385494133
H       -2.5418396451     -0.4529196425     -0.0121631007
$end
--------------------------------------------------------------

             Standard Nuclear Orientation (Angstroms)
    I     Atom           X                Y                Z
 ----------------------------------------------------------------
    1      C      -5.5206597869     0.5643711340    -0.0685619857
    2      C      -4.4793833778     1.4883271521     0.0374062178
    3      H      -5.8558300170     0.2627554076    -1.0523130473
    4      H      -6.2348110410     0.4739267011     0.7381678723
    5      H      -4.6059996493    -0.1616203788     0.2073035323
    6      O      -3.2137259733    -0.1644165988     0.6108030389
    7      H      -4.2821825797     2.0263702589     0.9507970490
    8      H      -3.9463003274     1.8263432236    -0.8385494133
    9      H      -2.5418396451    -0.4529196425    -0.0121631007
 ----------------------------------------------------------------

    9    -154.8490193482      1.74E-05 Convergence criterion met
   10    -154.9279859876      9.18E-06 Convergence criterion met
 Total energy in the final basis set = -154.92798599

                    Orbital Energies (a.u.)
 --------------------------------------------------------------

 Alpha MOs
 -- Occupied --
-19.1865 -10.3740 -10.2837  -1.0143  -0.9087  -0.7218  -0.5935  -0.5719
 -0.5175  -0.4746  -0.4333  -0.3547  -0.3154

                    Cartesian Multipole Moments
 -----------------------------------------------------------------
    Charge (ESU x 10^10)
                 0.0000
    Dipole Moment (Debye)
         X      -1.5491      Y       1.9868      Z      -2.0002
       Tot       3.2168
    Quadrupole Moments (Debye-Ang)
        XX      -7.1156     XY      -8.2897     YY     -17.3748
        XZ       5.0701     YZ       1.1686     ZZ     -20.8334

 Total job time:  17.67s(wall), 96.59s(cpu)
        *  Thank you very much for using Q-Chem.  Have a nice day.  *
