 Q-Chem 5.3 (devel), Q-Chem, Inc., Pleasanton, CA (2020)
 Q-Chem 5.3.0 for Intel X86 EM64T Linux

User input:
--------------------------------------------------------------
$rem
   JOBTYPE  sp
   EXCHANGE   omegaB97X-D
   BASIS   6-311+G(2df,2pd)
   UNRESTRICTED   False
   max_scf_cycles   250
   geom_opt_max_cycles   1500
   basis2 6-31G*
   scf_algorithm rca_diis
   SYM_IGNORE  TRUE
   print_input   true
   geom_opt_dmax   80
   pop_mulliken false
   XC_GRID 000075000302
$end

$molecule
0 1
C       -5.5359450382     0.5732017509     -0.0752674157
C       -4.3955591768     1.4081377680     0.0576805594
H       -5.8367345638     0.3007904610     -1.0802553726
H       -6.2629650780     0.6002229213     0.7269328504
H       -4.5113159754     -0.5480228472     0.3040125354
O       -3.3299084694     0.0225977937     0.6046142696
H       -4.2440082135     1.9703444048     0.9693089385
H       -3.8587219501     1.7200541714     -0.8302986992
H       -2.7055739320     -0.1841891669     -0.1038375024
$end
--------------------------------------------------------------

             Standard Nuclear Orientation (Angstroms)
    I     Atom           X                Y                Z
 ----------------------------------------------------------------
    1      C      -5.5359450382     0.5732017509    -0.0752674157
    2      C      -4.3955591768     1.4081377680     0.0576805594
    3      H      -5.8367345638     0.3007904610    -1.0802553726
    4      H      -6.2629650780     0.6002229213     0.7269328504
    5      H      -4.5113159754    -0.5480228472     0.3040125354
    6      O      -3.3299084694     0.0225977937     0.6046142696
    7      H      -4.2440082135     1.9703444048     0.9693089385
    8      H      -3.8587219501     1.7200541714    -0.8302986992
    9      H      -2.7055739320    -0.1841891669    -0.1038375024
 ----------------------------------------------------------------

    7    -154.8511747411      4.39E-05 Convergence criterion met
    8    -154.9245858996      9.32E-06 Convergence criterion met
 Total energy in the final basis set = -154.92458590

                    Orbital Energies (a.u.)
 --------------------------------------------------------------

 Alpha MOs
 -- Occupied --
-19.2519 -10.3494 -10.2581  -1.0864  -0.8624  -0.6934  -0.5949  -0.5624
 -0.4975  -0.4599  -0.4448  -0.4397  -0.2928

                    Cartesian Multipole Moments
 -----------------------------------------------------------------
    Charge (ESU x 10^10)
                 0.0000
    Dipole Moment (Debye)
         X       0.6219      Y       0.7280      Z      -1.4072
       Tot       1.7020
    Quadrupole Moments (Debye-Ang)
        XX     -26.7435     XY      -2.4688     YY     -19.2071
        XZ       2.9431     YZ       0.8254     ZZ     -20.8107

 Total job time:  19.37s(wall), 102.38s(cpu)
        *  Thank you very much for using Q-Chem.  Have a nice day.  *
