 Q-Chem 5.3 (devel), Q-Chem, Inc., Pleasanton, CA (2020)
 Q-Chem 5.3.0 for Intel X86 EM64T Linux

User input:
--------------------------------------------------------------
$rem
   JOBTYPE  sp
   EXCHANGE   omegaB97X-D
   BASIS   6-311+G(2df,2pd)
   UNRESTRICTED   False
   max_scf_cycles   250
   geom_opt_max_cycles   1500
   basis2 6-31G*
   scf_algorithm rca_diis
   SYM_IGNORE  TRUE
   print_input   true
   geom_opt_dmax   80
   pop_mulliken false
   XC_GRID 000075000302
$end

$molecule
0 1
C       -5.5525204637     0.5485861216     -0.0785274676
C       -4.4000118427     1.3834906793     0.0568614127
H       -5.8750935019     0.3403194774     -1.0067257188
H       -6.2481470620     0.5793311854     0.6473732892
H       -4.4671210161     -0.3023855941     0.2878227864
O       -3.2939381124     -0.0122691984     0.5844218335
H       -4.2673636610     1.9174013412     0.8621877112
H       -3.9330939266     1.6757263534     -0.7007997141
H       -2.6434428109     -0.2670631087     -0.0797239691
$end
--------------------------------------------------------------

             Standard Nuclear Orientation (Angstroms)
    I     Atom           X                Y                Z
 ----------------------------------------------------------------
    1      C      -5.5525204637     0.5485861216    -0.0785274676
    2      C      -4.4000118427     1.3834906793     0.0568614127
    3      H      -5.8750935019     0.3403194774    -1.0067257188
    4      H      -6.2481470620     0.5793311854     0.6473732892
    5      H      -4.4671210161    -0.3023855941     0.2878227864
    6      O      -3.2939381124    -0.0122691984     0.5844218335
    7      H      -4.2673636610     1.9174013412     0.8621877112
    8      H      -3.9330939266     1.6757263534    -0.7007997141
    9      H      -2.6434428109    -0.2670631087    -0.0797239691
 ----------------------------------------------------------------

    7    -154.8219761319      4.07E-05 Convergence criterion met
    7    -154.9011943630      9.11E-06 Convergence criterion met
 Total energy in the final basis set = -154.90119436

                    Orbital Energies (a.u.)
 --------------------------------------------------------------

 Alpha MOs
 -- Occupied --
-19.2428 -10.3279 -10.2372  -1.0887  -0.8842  -0.7284  -0.6183  -0.5905
 -0.5090  -0.4732  -0.4467  -0.4304  -0.3031

                    Cartesian Multipole Moments
 -----------------------------------------------------------------
    Charge (ESU x 10^10)
                 0.0000
    Dipole Moment (Debye)
         X       0.5322      Y       1.0074      Z      -1.4688
       Tot       1.8589
    Quadrupole Moments (Debye-Ang)
        XX     -24.9384     XY      -3.9738     YY     -18.5842
        XZ       3.4072     YZ       0.8133     ZZ     -20.7371

 Total job time:  19.13s(wall), 99.53s(cpu)
        *  Thank you very much for using Q-Chem.  Have a nice day.  *
