 Q-Chem 5.3 (devel), Q-Chem, Inc., Pleasanton, CA (2020)
 Q-Chem 5.3.0 for Intel X86 EM64T Linux

User input:
--------------------------------------------------------------
$rem
   JOBTYPE  sp
   EXCHANGE   omegaB97X-D
   BASIS   6-311+G(2df,2pd)
   UNRESTRICTED   False
   max_scf_cycles   250
   geom_opt_max_cycles   1500
   basis2 6-31G*
   scf_algorithm rca_diis
   SYM_IGNORE  TRUE
   print_input   true
   geom_opt_dmax   80
   pop_mulliken false
   XC_GRID 000075000302
$end

$molecule
0 1
C       -5.5558976431     0.5163646314     -0.0756653856
C       -4.3578070474     1.2708223429     0.0983824053
H       -5.9079550422     0.3564656699     -1.0868401253
H       -6.3340053289     0.6442484386     0.6657653599
H       -4.2890559627     -0.4162530821     0.3883543460
O       -3.3871226947     0.0769035070     0.5537264478
H       -4.2658684828     1.9343609223     0.9500708928
H       -3.8160393023     1.6341166216     -0.7699122392
H       -2.7669808931     -0.1538917945     -0.1509915384
$end
--------------------------------------------------------------

             Standard Nuclear Orientation (Angstroms)
    I     Atom           X                Y                Z
 ----------------------------------------------------------------
    1      C      -5.5558976431     0.5163646314    -0.0756653856
    2      C      -4.3578070474     1.2708223429     0.0983824053
    3      H      -5.9079550422     0.3564656699    -1.0868401253
    4      H      -6.3340053289     0.6442484386     0.6657653599
    5      H      -4.2890559627    -0.4162530821     0.3883543460
    6      O      -3.3871226947     0.0769035070     0.5537264478
    7      H      -4.2658684828     1.9343609223     0.9500708928
    8      H      -3.8160393023     1.6341166216    -0.7699122392
    9      H      -2.7669808931    -0.1538917945    -0.1509915384
 ----------------------------------------------------------------

    7    -154.8514092445      3.42E-05 Convergence criterion met
    7    -154.9284816204      7.06E-06 Convergence criterion met
 Total energy in the final basis set = -154.92848162

                    Orbital Energies (a.u.)
 --------------------------------------------------------------

 Alpha MOs
 -- Occupied --
-19.3161 -10.3424 -10.2209  -1.1975  -0.8557  -0.6996  -0.6784  -0.5807
 -0.5288  -0.5023  -0.4610  -0.4212  -0.2676

                    Cartesian Multipole Moments
 -----------------------------------------------------------------
    Charge (ESU x 10^10)
                 0.0000
    Dipole Moment (Debye)
         X       2.6339      Y       0.3233      Z      -0.8103
       Tot       2.7746
    Quadrupole Moments (Debye-Ang)
        XX     -44.0113     XY      -1.0158     YY     -20.5846
        XZ       1.1853     YZ       0.7747     ZZ     -20.8925

 Total job time:  13.04s(wall), 67.15s(cpu)
        *  Thank you very much for using Q-Chem.  Have a nice day.  *
