 Q-Chem 5.3 (devel), Q-Chem, Inc., Pleasanton, CA (2020)
 Q-Chem 5.3.0 for Intel X86 EM64T Linux

User input:
--------------------------------------------------------------
$rem
   JOBTYPE  sp
   EXCHANGE   omegaB97X-D
   BASIS   6-311+G(2df,2pd)
   UNRESTRICTED   False
   max_scf_cycles   250
   geom_opt_max_cycles   1500
   basis2 6-31G*
   scf_algorithm rca_diis
   SYM_IGNORE  TRUE
   print_input   true
   geom_opt_dmax   80
   pop_mulliken false
   XC_GRID 000075000302
$end

$molecule
0 1
C       -5.5520067532     0.5426348606     -0.0720927430
C       -4.4186490919     1.3723279128     0.0537048694
H       -5.8816893398     0.3103997297     -1.0766257625
H       -6.3202274294     0.5698705664     0.6889567548
H       -4.4740187795     -0.3041098429     0.3095204637
O       -3.3000215667     -0.0094021134     0.5887906892
H       -4.1843546026     1.9026338034     0.9643532902
H       -3.9246300006     1.7472636992     -0.8358385870
H       -2.6251348336     -0.2684813587     -0.0478788116
$end
--------------------------------------------------------------

             Standard Nuclear Orientation (Angstroms)
    I     Atom           X                Y                Z
 ----------------------------------------------------------------
    1      C      -5.5520067532     0.5426348606    -0.0720927430
    2      C      -4.4186490919     1.3723279128     0.0537048694
    3      H      -5.8816893398     0.3103997297    -1.0766257625
    4      H      -6.3202274294     0.5698705664     0.6889567548
    5      H      -4.4740187795    -0.3041098429     0.3095204637
    6      O      -3.3000215667    -0.0094021134     0.5887906892
    7      H      -4.1843546026     1.9026338034     0.9643532902
    8      H      -3.9246300006     1.7472636992    -0.8358385870
    9      H      -2.6251348336    -0.2684813587    -0.0478788116
 ----------------------------------------------------------------

    7    -154.8606305869      4.10E-05 Convergence criterion met
    7    -154.9361900217      7.99E-06 Convergence criterion met
 Total energy in the final basis set = -154.93619002

                    Orbital Energies (a.u.)
 --------------------------------------------------------------

 Alpha MOs
 -- Occupied --
-19.2407 -10.3527 -10.2547  -1.0871  -0.8742  -0.6972  -0.6142  -0.5671
 -0.5052  -0.4555  -0.4409  -0.4247  -0.3055

                    Cartesian Multipole Moments
 -----------------------------------------------------------------
    Charge (ESU x 10^10)
                 0.0000
    Dipole Moment (Debye)
         X       0.5181      Y       0.9194      Z      -1.4243
       Tot       1.7726
    Quadrupole Moments (Debye-Ang)
        XX     -24.8989     XY      -3.5504     YY     -19.1698
        XZ       3.3216     YZ       0.7612     ZZ     -20.8047

 Total job time:  13.59s(wall), 71.93s(cpu)
        *  Thank you very much for using Q-Chem.  Have a nice day.  *
