 Q-Chem 5.3 (devel), Q-Chem, Inc., Pleasanton, CA (2020)
 Q-Chem 5.3.0 for Intel X86 EM64T Linux

User input:
--------------------------------------------------------------
$rem
   JOBTYPE  sp
   EXCHANGE   omegaB97X-D
   BASIS   6-311+G(2df,2pd)
   UNRESTRICTED   False
   max_scf_cycles   250
   geom_opt_max_cycles   1500
   basis2 6-31G*
   scf_algorithm rca_diis
   SYM_IGNORE  TRUE
   print_input   true
   geom_opt_dmax   80
   pop_mulliken false
   XC_GRID 000075000302
$end

$molecule
0 1
C       -5.5538562108     0.5239006911     -0.0746839687
C       -4.3735125053     1.2992594805     0.0869005223
H       -5.9068719388     0.3436045542     -1.0820111704
H       -6.3241841346     0.6206570544     0.6791981689
H       -4.3526221416     -0.3858213794     0.3544284143
O       -3.3553473950     0.0517385505     0.5651163694
H       -4.2602156702     1.9395942850     0.9525405650
H       -3.8300979005     1.6547744940     -0.7822665349
H       -2.7240245006     -0.1845704730     -0.1263322027
$end
--------------------------------------------------------------

             Standard Nuclear Orientation (Angstroms)
    I     Atom           X                Y                Z
 ----------------------------------------------------------------
    1      C      -5.5538562108     0.5239006911    -0.0746839687
    2      C      -4.3735125053     1.2992594805     0.0869005223
    3      H      -5.9068719388     0.3436045542    -1.0820111704
    4      H      -6.3241841346     0.6206570544     0.6791981689
    5      H      -4.3526221416    -0.3858213794     0.3544284143
    6      O      -3.3553473950     0.0517385505     0.5651163694
    7      H      -4.2602156702     1.9395942850     0.9525405650
    8      H      -3.8300979005     1.6547744940    -0.7822665349
    9      H      -2.7240245006    -0.1845704730    -0.1263322027
 ----------------------------------------------------------------

    7    -154.8580658800      3.45E-05 Convergence criterion met
    7    -154.9337300589      7.00E-06 Convergence criterion met
 Total energy in the final basis set = -154.93373006

                    Orbital Energies (a.u.)
 --------------------------------------------------------------

 Alpha MOs
 -- Occupied --
-19.2914 -10.3449 -10.2312  -1.1586  -0.8593  -0.6921  -0.6566  -0.5709
 -0.5120  -0.4854  -0.4629  -0.4280  -0.2806

                    Cartesian Multipole Moments
 -----------------------------------------------------------------
    Charge (ESU x 10^10)
                -0.0000
    Dipole Moment (Debye)
         X       1.9619      Y       0.4792      Z      -1.0175
       Tot       2.2614
    Quadrupole Moments (Debye-Ang)
        XX     -37.9137     XY      -1.6658     YY     -20.1327
        XZ       1.8556     YZ       0.8063     ZZ     -20.8495

 Total job time:  13.75s(wall), 71.65s(cpu)
        *  Thank you very much for using Q-Chem.  Have a nice day.  *
