 Q-Chem 5.3 (devel), Q-Chem, Inc., Pleasanton, CA (2020)
 Q-Chem 5.3.0 for Intel X86 EM64T Linux

User input:
--------------------------------------------------------------
$rem
   JOBTYPE  sp
   EXCHANGE   omegaB97X-D
   BASIS   6-311+G(2df,2pd)
   UNRESTRICTED   False
   max_scf_cycles   250
   geom_opt_max_cycles   1500
   basis2 6-31G*
   scf_algorithm rca_diis
   SYM_IGNORE  TRUE
   print_input   true
   geom_opt_dmax   80
   pop_mulliken false
   XC_GRID 000075000302
$end

$molecule
0 1
C       -5.5201488513     0.5155154561     -0.1233930058
C       -4.4106042077     1.3720435586     0.0584567429
H       -5.8871002801     0.3122872674     -1.1196701469
H       -6.2426155335     0.4630799430     0.6811207942
H       -4.3956382614     -0.1672084162     0.3756487331
O       -3.1140602697     0.1250392540     0.6343168663
H       -4.2892275522     1.9271494580     0.9772072501
H       -3.8472862400     1.7573433513     -0.7809154638
H       -2.9740512014     -0.4421126152     -0.1298816067
$end
--------------------------------------------------------------

             Standard Nuclear Orientation (Angstroms)
    I     Atom           X                Y                Z
 ----------------------------------------------------------------
    1      C      -5.5201488513     0.5155154561    -0.1233930058
    2      C      -4.4106042077     1.3720435586     0.0584567429
    3      H      -5.8871002801     0.3122872674    -1.1196701469
    4      H      -6.2426155335     0.4630799430     0.6811207942
    5      H      -4.3956382614    -0.1672084162     0.3756487331
    6      O      -3.1140602697     0.1250392540     0.6343168663
    7      H      -4.2892275522     1.9271494580     0.9772072501
    8      H      -3.8472862400     1.7573433513    -0.7809154638
    9      H      -2.9740512014    -0.4421126152    -0.1298816067
 ----------------------------------------------------------------

    7    -154.8482300946      5.29E-05 Convergence criterion met
    8    -154.9247370203      9.01E-06 Convergence criterion met
 Total energy in the final basis set = -154.92473702

                    Orbital Energies (a.u.)
 --------------------------------------------------------------

 Alpha MOs
 -- Occupied --
-19.2309 -10.3651 -10.2740  -1.0787  -0.8878  -0.7071  -0.5918  -0.5645
 -0.5225  -0.4767  -0.4574  -0.3993  -0.3117

                    Cartesian Multipole Moments
 -----------------------------------------------------------------
    Charge (ESU x 10^10)
                -0.0000
    Dipole Moment (Debye)
         X      -1.0374      Y       0.7856      Z      -1.5634
       Tot       2.0341
    Quadrupole Moments (Debye-Ang)
        XX     -14.4711     XY      -3.7808     YY     -18.3476
        XZ       3.4805     YZ       0.8004     ZZ     -20.4926

 Total job time:  15.60s(wall), 82.75s(cpu)
        *  Thank you very much for using Q-Chem.  Have a nice day.  *
