 Q-Chem 5.3 (devel), Q-Chem, Inc., Pleasanton, CA (2020)
 Q-Chem 5.3.0 for Intel X86 EM64T Linux

User input:
--------------------------------------------------------------
$rem
   JOBTYPE  sp
   EXCHANGE   omegaB97X-D
   BASIS   6-311+G(2df,2pd)
   UNRESTRICTED   False
   max_scf_cycles   250
   geom_opt_max_cycles   1500
   basis2 6-31G*
   scf_algorithm rca_diis
   SYM_IGNORE  TRUE
   print_input   true
   geom_opt_dmax   80
   pop_mulliken false
   XC_GRID 000075000302
$end

$molecule
0 1
C       -5.5438264852     0.5387462105     -0.0976786641
C       -4.4074780879     1.3645535095     0.0303880939
H       -5.9600273595     0.2504705876     -1.0531869954
H       -6.2452493920     0.6382510062     0.7211883105
H       -4.4677381742     -0.3079634911     0.2820075605
O       -3.2942061524     -0.0156328708     0.5746410129
H       -4.3283051102     1.9043841823     0.9633920707
H       -3.8059760877     1.7648690391     -0.7762293448
H       -2.6279255482     -0.2745409163     -0.0716318809
$end
--------------------------------------------------------------

             Standard Nuclear Orientation (Angstroms)
    I     Atom           X                Y                Z
 ----------------------------------------------------------------
    1      C      -5.5438264852     0.5387462105    -0.0976786641
    2      C      -4.4074780879     1.3645535095     0.0303880939
    3      H      -5.9600273595     0.2504705876    -1.0531869954
    4      H      -6.2452493920     0.6382510062     0.7211883105
    5      H      -4.4677381742    -0.3079634911     0.2820075605
    6      O      -3.2942061524    -0.0156328708     0.5746410129
    7      H      -4.3283051102     1.9043841823     0.9633920707
    8      H      -3.8059760877     1.7648690391    -0.7762293448
    9      H      -2.6279255482    -0.2745409163    -0.0716318809
 ----------------------------------------------------------------

    7    -154.8601245170      4.11E-05 Convergence criterion met
    7    -154.9356246830      8.16E-06 Convergence criterion met
 Total energy in the final basis set = -154.93562468

                    Orbital Energies (a.u.)
 --------------------------------------------------------------

 Alpha MOs
 -- Occupied --
-19.2415 -10.3536 -10.2547  -1.0876  -0.8749  -0.6973  -0.6113  -0.5690
 -0.5092  -0.4539  -0.4381  -0.4271  -0.3056

                    Cartesian Multipole Moments
 -----------------------------------------------------------------
    Charge (ESU x 10^10)
                 0.0000
    Dipole Moment (Debye)
         X       0.4999      Y       0.9298      Z      -1.4211
       Tot       1.7703
    Quadrupole Moments (Debye-Ang)
        XX     -24.7595     XY      -3.6458     YY     -19.0717
        XZ       3.1457     YZ       0.9498     ZZ     -20.8692

 Total job time:  16.29s(wall), 85.73s(cpu)
        *  Thank you very much for using Q-Chem.  Have a nice day.  *
