 Q-Chem 5.3 (devel), Q-Chem, Inc., Pleasanton, CA (2020)
 Q-Chem 5.3.0 for Intel X86 EM64T Linux

User input:
--------------------------------------------------------------
$rem
   JOBTYPE  sp
   EXCHANGE   omegaB97X-D
   BASIS   6-311+G(2df,2pd)
   UNRESTRICTED   False
   max_scf_cycles   250
   geom_opt_max_cycles   1500
   basis2 6-31G*
   scf_algorithm rca_diis
   SYM_IGNORE  TRUE
   print_input   true
   geom_opt_dmax   80
   pop_mulliken false
   XC_GRID 000075000302
$end

$molecule
0 1
C       -5.5404428065     0.5374392115     -0.0731496296
C       -4.4046974294     1.3644581343     0.0613931047
H       -5.8986663361     0.3173935899     -1.0705912309
H       -6.2870336935     0.5599270229     0.7092726529
H       -4.4579749677     -0.3133175063     0.2773814123
O       -3.2786366925     -0.0237669738     0.5646631731
H       -4.2480483391     1.9557801962     0.9529690117
H       -3.8689496274     1.7144394981     -0.8116461119
H       -2.6962825051     -0.2492159158     -0.0374022190
$end
--------------------------------------------------------------

             Standard Nuclear Orientation (Angstroms)
    I     Atom           X                Y                Z
 ----------------------------------------------------------------
    1      C      -5.5404428065     0.5374392115    -0.0731496296
    2      C      -4.4046974294     1.3644581343     0.0613931047
    3      H      -5.8986663361     0.3173935899    -1.0705912309
    4      H      -6.2870336935     0.5599270229     0.7092726529
    5      H      -4.4579749677    -0.3133175063     0.2773814123
    6      O      -3.2786366925    -0.0237669738     0.5646631731
    7      H      -4.2480483391     1.9557801962     0.9529690117
    8      H      -3.8689496274     1.7144394981    -0.8116461119
    9      H      -2.6962825051    -0.2492159158    -0.0374022190
 ----------------------------------------------------------------

    7    -154.8492579400      4.17E-05 Convergence criterion met
    7    -154.9263924888      5.04E-06 Convergence criterion met
 Total energy in the final basis set = -154.92639249

                    Orbital Energies (a.u.)
 --------------------------------------------------------------

 Alpha MOs
 -- Occupied --
-19.2317 -10.3556 -10.2544  -1.1110  -0.8788  -0.6983  -0.6227  -0.5704
 -0.5093  -0.4582  -0.4411  -0.4299  -0.3065

                    Cartesian Multipole Moments
 -----------------------------------------------------------------
    Charge (ESU x 10^10)
                -0.0000
    Dipole Moment (Debye)
         X       0.4076      Y       1.0011      Z      -1.4066
       Tot       1.7739
    Quadrupole Moments (Debye-Ang)
        XX     -24.2460     XY      -3.8518     YY     -18.9402
        XZ       3.1866     YZ       0.8680     ZZ     -20.6784

 Total job time:  16.92s(wall), 88.10s(cpu)
        *  Thank you very much for using Q-Chem.  Have a nice day.  *
