 Q-Chem 5.3 (devel), Q-Chem, Inc., Pleasanton, CA (2020)
 Q-Chem 5.3.0 for Intel X86 EM64T Linux

User input:
--------------------------------------------------------------
$rem
   JOBTYPE  sp
   EXCHANGE   omegaB97X-D
   BASIS   6-311+G(2df,2pd)
   UNRESTRICTED   False
   max_scf_cycles   250
   geom_opt_max_cycles   1500
   basis2 6-31G*
   scf_algorithm rca_diis
   SYM_IGNORE  TRUE
   print_input   true
   geom_opt_dmax   80
   pop_mulliken false
   XC_GRID 000075000302
$end

$molecule
0 1
C       -5.5850486056     0.7124123983     -0.1077065368
C       -4.3970424249     1.4098121938     0.0684213364
H       -5.7694239464     0.1502101111     -1.0069721145
H       -6.1809602685     0.3935133083     0.7288313441
H       -4.5930909827     -0.1699874929     0.2345834953
O       -3.3730747685     -0.0227350584     0.5669457079
H       -4.2248135742     1.9785310436     0.9695102171
H       -3.8278446515     1.7282867403     -0.7939408070
H       -2.7294331752     -0.3169059869     -0.0867824792
$end
--------------------------------------------------------------

             Standard Nuclear Orientation (Angstroms)
    I     Atom           X                Y                Z
 ----------------------------------------------------------------
    1      C      -5.5850486056     0.7124123983    -0.1077065368
    2      C      -4.3970424249     1.4098121938     0.0684213364
    3      H      -5.7694239464     0.1502101111    -1.0069721145
    4      H      -6.1809602685     0.3935133083     0.7288313441
    5      H      -4.5930909827    -0.1699874929     0.2345834953
    6      O      -3.3730747685    -0.0227350584     0.5669457079
    7      H      -4.2248135742     1.9785310436     0.9695102171
    8      H      -3.8278446515     1.7282867403    -0.7939408070
    9      H      -2.7294331752    -0.3169059869    -0.0867824792
 ----------------------------------------------------------------

    7    -154.8460208577      4.01E-05 Convergence criterion met
    7    -154.9235620984      6.84E-06 Convergence criterion met
 Total energy in the final basis set = -154.92356210

                    Orbital Energies (a.u.)
 --------------------------------------------------------------

 Alpha MOs
 -- Occupied --
-19.2367 -10.3544 -10.2559  -1.0867  -0.8888  -0.7089  -0.6051  -0.5724
 -0.5191  -0.4614  -0.4424  -0.4207  -0.3025

                    Cartesian Multipole Moments
 -----------------------------------------------------------------
    Charge (ESU x 10^10)
                 0.0000
    Dipole Moment (Debye)
         X       0.6660      Y       0.3014      Z      -1.3011
       Tot       1.4924
    Quadrupole Moments (Debye-Ang)
        XX     -27.4161     XY       0.7604     YY     -19.6073
        XZ       2.3232     YZ       1.3047     ZZ     -20.8170

 Total job time:  15.55s(wall), 81.16s(cpu)
        *  Thank you very much for using Q-Chem.  Have a nice day.  *
