 Q-Chem 5.3 (devel), Q-Chem, Inc., Pleasanton, CA (2020)
 Q-Chem 5.3.0 for Intel X86 EM64T Linux

User input:
--------------------------------------------------------------
$rem
   JOBTYPE  sp
   EXCHANGE   omegaB97X-D
   BASIS   6-311+G(2df,2pd)
   UNRESTRICTED   False
   max_scf_cycles   250
   geom_opt_max_cycles   1500
   basis2 6-31G*
   scf_algorithm rca_diis
   SYM_IGNORE  TRUE
   print_input   true
   geom_opt_dmax   80
   pop_mulliken false
   XC_GRID 000075000302
$end

$molecule
0 1
C       -5.5547558972     0.5433264385     -0.0363246656
C       -4.4094819315     1.3617587240     0.0521732508
H       -5.9520632842     0.2825311385     -1.1415713776
H       -6.2099545990     0.5767097435     0.6488607849
H       -4.4710240681     -0.3077137886     0.3079643710
O       -3.2922834828     -0.0188826139     0.5871353795
H       -4.2325059505     2.0179691169     1.0146442523
H       -3.9073000331     1.6787981980     -0.7722108589
H       -2.6513631508     -0.2713596998     -0.0877809731
$end
--------------------------------------------------------------

             Standard Nuclear Orientation (Angstroms)
    I     Atom           X                Y                Z
 ----------------------------------------------------------------
    1      C      -5.5547558972     0.5433264385    -0.0363246656
    2      C      -4.4094819315     1.3617587240     0.0521732508
    3      H      -5.9520632842     0.2825311385    -1.1415713776
    4      H      -6.2099545990     0.5767097435     0.6488607849
    5      H      -4.4710240681    -0.3077137886     0.3079643710
    6      O      -3.2922834828    -0.0188826139     0.5871353795
    7      H      -4.2325059505     2.0179691169     1.0146442523
    8      H      -3.9073000331     1.6787981980    -0.7722108589
    9      H      -2.6513631508    -0.2713596998    -0.0877809731
 ----------------------------------------------------------------

    7    -154.8304456002      4.21E-05 Convergence criterion met
    7    -154.9070339567      8.17E-06 Convergence criterion met
 Total energy in the final basis set = -154.90703396

                    Orbital Energies (a.u.)
 --------------------------------------------------------------

 Alpha MOs
 -- Occupied --
-19.2431 -10.3566 -10.2522  -1.0889  -0.8761  -0.7046  -0.6123  -0.5673
 -0.5083  -0.4614  -0.4328  -0.4270  -0.3059

                    Cartesian Multipole Moments
 -----------------------------------------------------------------
    Charge (ESU x 10^10)
                 0.0000
    Dipole Moment (Debye)
         X       0.4873      Y       0.9477      Z      -1.4323
       Tot       1.7853
    Quadrupole Moments (Debye-Ang)
        XX     -24.8821     XY      -3.7013     YY     -19.1260
        XZ       3.1431     YZ       0.8797     ZZ     -20.7737

 Total job time:  17.04s(wall), 88.42s(cpu)
        *  Thank you very much for using Q-Chem.  Have a nice day.  *
