 Q-Chem 5.3 (devel), Q-Chem, Inc., Pleasanton, CA (2020)
 Q-Chem 5.3.0 for Intel X86 EM64T Linux

User input:
--------------------------------------------------------------
$rem
   JOBTYPE  sp
   EXCHANGE   omegaB97X-D
   BASIS   6-311+G(2df,2pd)
   UNRESTRICTED   False
   max_scf_cycles   250
   geom_opt_max_cycles   1500
   basis2 6-31G*
   scf_algorithm rca_diis
   SYM_IGNORE  TRUE
   print_input   true
   geom_opt_dmax   80
   pop_mulliken false
   XC_GRID 000075000302
$end

$molecule
0 1
C       -5.5371877452     0.5192315380     -0.0698119587
C       -4.4091851718     1.3488545818     0.0697594382
H       -5.9157403423     0.3131952360     -1.0618829072
H       -6.3013986443     0.5405246962     0.6947271548
H       -4.4487312841     -0.1936971903     0.2795941372
O       -3.3018413051     -0.0287556086     0.5721683309
H       -4.2608745684     1.9616330300     0.9472669514
H       -3.8669541609     1.7129925928     -0.7935184500
H       -2.6388191752     -0.3108416188     -0.0654125333
$end
--------------------------------------------------------------

             Standard Nuclear Orientation (Angstroms)
    I     Atom           X                Y                Z
 ----------------------------------------------------------------
    1      C      -5.5371877452     0.5192315380    -0.0698119587
    2      C      -4.4091851718     1.3488545818     0.0697594382
    3      H      -5.9157403423     0.3131952360    -1.0618829072
    4      H      -6.3013986443     0.5405246962     0.6947271548
    5      H      -4.4487312841    -0.1936971903     0.2795941372
    6      O      -3.3018413051    -0.0287556086     0.5721683309
    7      H      -4.2608745684     1.9616330300     0.9472669514
    8      H      -3.8669541609     1.7129925928    -0.7935184500
    9      H      -2.6388191752    -0.3108416188    -0.0654125333
 ----------------------------------------------------------------

    7    -154.8567120036      3.90E-05 Convergence criterion met
    7    -154.9333218773      4.87E-06 Convergence criterion met
 Total energy in the final basis set = -154.93332188

                    Orbital Energies (a.u.)
 --------------------------------------------------------------

 Alpha MOs
 -- Occupied --
-19.2393 -10.3561 -10.2510  -1.0959  -0.8824  -0.6999  -0.6260  -0.5707
 -0.5111  -0.4555  -0.4365  -0.4259  -0.3075

                    Cartesian Multipole Moments
 -----------------------------------------------------------------
    Charge (ESU x 10^10)
                 0.0000
    Dipole Moment (Debye)
         X       0.5052      Y       1.0374      Z      -1.4327
       Tot       1.8396
    Quadrupole Moments (Debye-Ang)
        XX     -24.5949     XY      -4.2213     YY     -18.9936
        XZ       3.3390     YZ       0.9283     ZZ     -20.7987

 Total job time:  17.18s(wall), 89.10s(cpu)
        *  Thank you very much for using Q-Chem.  Have a nice day.  *
