 Q-Chem 5.3 (devel), Q-Chem, Inc., Pleasanton, CA (2020)
 Q-Chem 5.3.0 for Intel X86 EM64T Linux

User input:
--------------------------------------------------------------
$rem
   JOBTYPE  sp
   EXCHANGE   omegaB97X-D
   BASIS   6-311+G(2df,2pd)
   UNRESTRICTED   False
   max_scf_cycles   250
   geom_opt_max_cycles   1500
   basis2 6-31G*
   scf_algorithm rca_diis
   SYM_IGNORE  TRUE
   print_input   true
   geom_opt_dmax   80
   pop_mulliken false
   XC_GRID 000075000302
$end

$molecule
0 1
C       -5.5717569581     0.6596369244     -0.0964292141
C       -4.3975819513     1.3971874886     0.0678575725
H       -5.8185614667     0.1975789313     -1.0390791631
H       -6.2299014313     0.4459002989     0.7295917111
H       -4.5520279762     -0.2140349480     0.2523416116
O       -3.3453070886     -0.0198787975     0.5737927998
H       -4.2305543585     1.9739589083     0.9654128639
H       -3.8360072706     1.7234379389     -0.7972654795
H       -2.6990338960     -0.3006494877     -0.0833325390
$end
--------------------------------------------------------------

             Standard Nuclear Orientation (Angstroms)
    I     Atom           X                Y                Z
 ----------------------------------------------------------------
    1      C      -5.5717569581     0.6596369244    -0.0964292141
    2      C      -4.3975819513     1.3971874886     0.0678575725
    3      H      -5.8185614667     0.1975789313    -1.0390791631
    4      H      -6.2299014313     0.4459002989     0.7295917111
    5      H      -4.5520279762    -0.2140349480     0.2523416116
    6      O      -3.3453070886    -0.0198787975     0.5737927998
    7      H      -4.2305543585     1.9739589083     0.9654128639
    8      H      -3.8360072706     1.7234379389    -0.7972654795
    9      H      -2.6990338960    -0.3006494877    -0.0833325390
 ----------------------------------------------------------------

    7    -154.8542866646      4.06E-05 Convergence criterion met
    7    -154.9308951448      6.88E-06 Convergence criterion met
 Total energy in the final basis set = -154.93089514

                    Orbital Energies (a.u.)
 --------------------------------------------------------------

 Alpha MOs
 -- Occupied --
-19.2371 -10.3538 -10.2558  -1.0861  -0.8823  -0.7040  -0.6061  -0.5714
 -0.5151  -0.4617  -0.4418  -0.4221  -0.3017

                    Cartesian Multipole Moments
 -----------------------------------------------------------------
    Charge (ESU x 10^10)
                 0.0000
    Dipole Moment (Debye)
         X       0.5379      Y       0.4953      Z      -1.3614
       Tot       1.5454
    Quadrupole Moments (Debye-Ang)
        XX     -25.8498     XY      -0.5735     YY     -19.4804
        XZ       2.6677     YZ       1.1904     ZZ     -20.7656

 Total job time:  16.38s(wall), 86.02s(cpu)
        *  Thank you very much for using Q-Chem.  Have a nice day.  *
