 Q-Chem 5.3 (devel), Q-Chem, Inc., Pleasanton, CA (2020)
 Q-Chem 5.3.0 for Intel X86 EM64T Linux

User input:
--------------------------------------------------------------
$rem
   JOBTYPE  sp
   EXCHANGE   omegaB97X-D
   BASIS   6-311+G(2df,2pd)
   UNRESTRICTED   False
   max_scf_cycles   250
   geom_opt_max_cycles   1500
   basis2 6-31G*
   scf_algorithm rca_diis
   SYM_IGNORE  TRUE
   print_input   true
   geom_opt_dmax   80
   pop_mulliken false
   XC_GRID 000075000302
$end

$molecule
0 1
C       -5.6077964487     0.4955306474     -0.0803843717
C       -4.4693380446     1.3274526079     0.0629016508
H       -5.7939672033     0.3058983031     -1.1270189553
H       -6.2353528948     0.5832682987     0.7937363279
H       -4.4982580379     -0.3179976669     0.2830804845
O       -3.3254938253     -0.0252713344     0.5744564174
H       -4.2251418220     2.0047976127     0.8726493834
H       -3.8562736966     1.7626313151     -0.7209837710
H       -2.6691104241     -0.2731725265     -0.0855470028
$end
--------------------------------------------------------------

             Standard Nuclear Orientation (Angstroms)
    I     Atom           X                Y                Z
 ----------------------------------------------------------------
    1      C      -5.6077964487     0.4955306474    -0.0803843717
    2      C      -4.4693380446     1.3274526079     0.0629016508
    3      H      -5.7939672033     0.3058983031    -1.1270189553
    4      H      -6.2353528948     0.5832682987     0.7937363279
    5      H      -4.4982580379    -0.3179976669     0.2830804845
    6      O      -3.3254938253    -0.0252713344     0.5744564174
    7      H      -4.2251418220     2.0047976127     0.8726493834
    8      H      -3.8562736966     1.7626313151    -0.7209837710
    9      H      -2.6691104241    -0.2731725265    -0.0855470028
 ----------------------------------------------------------------

    7    -154.8480148736      4.09E-05 Convergence criterion met
    7    -154.9240884342      4.08E-06 Convergence criterion met
 Total energy in the final basis set = -154.92408843

                    Orbital Energies (a.u.)
 --------------------------------------------------------------

 Alpha MOs
 -- Occupied --
-19.2425 -10.3512 -10.2593  -1.0896  -0.8758  -0.7066  -0.6111  -0.5665
 -0.4981  -0.4614  -0.4358  -0.4275  -0.3064

                    Cartesian Multipole Moments
 -----------------------------------------------------------------
    Charge (ESU x 10^10)
                -0.0000
    Dipole Moment (Debye)
         X       0.6106      Y       0.9820      Z      -1.4121
       Tot       1.8252
    Quadrupole Moments (Debye-Ang)
        XX     -26.2403     XY      -3.7542     YY     -18.9643
        XZ       3.0751     YZ       0.9566     ZZ     -20.8046

 Total job time:  15.31s(wall), 78.93s(cpu)
        *  Thank you very much for using Q-Chem.  Have a nice day.  *
