 Q-Chem 5.3 (devel), Q-Chem, Inc., Pleasanton, CA (2020)
 Q-Chem 5.3.0 for Intel X86 EM64T Linux

User input:
--------------------------------------------------------------
$rem
   JOBTYPE  sp
   EXCHANGE   omegaB97X-D
   BASIS   6-311+G(2df,2pd)
   UNRESTRICTED   False
   max_scf_cycles   250
   geom_opt_max_cycles   1500
   basis2 6-31G*
   scf_algorithm rca_diis
   SYM_IGNORE  TRUE
   print_input   true
   geom_opt_dmax   80
   pop_mulliken false
   XC_GRID 000075000302
$end

$molecule
0 1
C       -5.5593764471     0.5334961562     -0.0759566007
C       -4.4217917016     1.3601467114     0.0655894771
H       -5.8853731131     0.3239863154     -1.0136019948
H       -6.2678656805     0.5592825715     0.6605970314
H       -4.4746434176     -0.3137414963     0.2876520450
O       -3.3008259599     -0.0219286597     0.5860725222
H       -4.2656164628     1.9739737727     0.9804357691
H       -3.8560055064     1.7210913547     -0.8400305760
H       -2.6492341083     -0.2731694689     -0.0778675099
$end
--------------------------------------------------------------

             Standard Nuclear Orientation (Angstroms)
    I     Atom           X                Y                Z
 ----------------------------------------------------------------
    1      C      -5.5593764471     0.5334961562    -0.0759566007
    2      C      -4.4217917016     1.3601467114     0.0655894771
    3      H      -5.8853731131     0.3239863154    -1.0136019948
    4      H      -6.2678656805     0.5592825715     0.6605970314
    5      H      -4.4746434176    -0.3137414963     0.2876520450
    6      O      -3.3008259599    -0.0219286597     0.5860725222
    7      H      -4.2656164628     1.9739737727     0.9804357691
    8      H      -3.8560055064     1.7210913547    -0.8400305760
    9      H      -2.6492341083    -0.2731694689    -0.0778675099
 ----------------------------------------------------------------

    7    -154.8537347682      4.14E-05 Convergence criterion met
    7    -154.9297396465      7.43E-06 Convergence criterion met
 Total energy in the final basis set = -154.92973965

                    Orbital Energies (a.u.)
 --------------------------------------------------------------

 Alpha MOs
 -- Occupied --
-19.2423 -10.3609 -10.2411  -1.0880  -0.8744  -0.6990  -0.6115  -0.5687
 -0.5095  -0.4621  -0.4399  -0.4268  -0.3049

                    Cartesian Multipole Moments
 -----------------------------------------------------------------
    Charge (ESU x 10^10)
                 0.0000
    Dipole Moment (Debye)
         X       0.4443      Y       0.9290      Z      -1.4468
       Tot       1.7758
    Quadrupole Moments (Debye-Ang)
        XX     -24.2957     XY      -3.6732     YY     -19.0983
        XZ       3.2913     YZ       0.9111     ZZ     -20.7740

 Total job time:  15.77s(wall), 82.77s(cpu)
        *  Thank you very much for using Q-Chem.  Have a nice day.  *
