 Q-Chem 5.3 (devel), Q-Chem, Inc., Pleasanton, CA (2020)
 Q-Chem 5.3.0 for Intel X86 EM64T Linux

User input:
--------------------------------------------------------------
$rem
   JOBTYPE  sp
   EXCHANGE   omegaB97X-D
   BASIS   6-311+G(2df,2pd)
   UNRESTRICTED   False
   max_scf_cycles   250
   geom_opt_max_cycles   1500
   basis2 6-31G*
   scf_algorithm rca_diis
   SYM_IGNORE  TRUE
   print_input   true
   geom_opt_dmax   80
   pop_mulliken false
   XC_GRID 000075000302
$end

$molecule
0 1
C       -5.5605247514     0.5248697486     -0.0797127723
C       -4.4296380829     1.3878830759     0.0462314457
H       -5.9327714140     0.3087516631     -1.0737785304
H       -6.3111903204     0.5419257096     0.7001934082
H       -4.4728745913     -0.2821781656     0.2898739405
O       -3.3025210989     0.0085571734     0.5962537819
H       -4.1898360359     1.9150249848     0.9593264640
H       -3.8353027234     1.7007444409     -0.8032988532
H       -2.6460733790     -0.2424413735     -0.0621987211
$end
--------------------------------------------------------------

             Standard Nuclear Orientation (Angstroms)
    I     Atom           X                Y                Z
 ----------------------------------------------------------------
    1      C      -5.5605247514     0.5248697486    -0.0797127723
    2      C      -4.4296380829     1.3878830759     0.0462314457
    3      H      -5.9327714140     0.3087516631    -1.0737785304
    4      H      -6.3111903204     0.5419257096     0.7001934082
    5      H      -4.4728745913    -0.2821781656     0.2898739405
    6      O      -3.3025210989     0.0085571734     0.5962537819
    7      H      -4.1898360359     1.9150249848     0.9593264640
    8      H      -3.8353027234     1.7007444409    -0.8032988532
    9      H      -2.6460733790    -0.2424413735    -0.0621987211
 ----------------------------------------------------------------

    7    -154.8600922242      4.13E-05 Convergence criterion met
    7    -154.9354732843      8.97E-06 Convergence criterion met
 Total energy in the final basis set = -154.93547328

                    Orbital Energies (a.u.)
 --------------------------------------------------------------

 Alpha MOs
 -- Occupied --
-19.2376 -10.3569 -10.2586  -1.0857  -0.8717  -0.7021  -0.6092  -0.5660
 -0.5074  -0.4593  -0.4391  -0.4209  -0.3065

                    Cartesian Multipole Moments
 -----------------------------------------------------------------
    Charge (ESU x 10^10)
                 0.0000
    Dipole Moment (Debye)
         X       0.4516      Y       0.9867      Z      -1.4697
       Tot       1.8269
    Quadrupole Moments (Debye-Ang)
        XX     -24.3194     XY      -3.6903     YY     -19.1862
        XZ       3.4064     YZ       0.8062     ZZ     -20.8784

 Total job time:  16.26s(wall), 86.06s(cpu)
        *  Thank you very much for using Q-Chem.  Have a nice day.  *
