 Q-Chem 5.3 (devel), Q-Chem, Inc., Pleasanton, CA (2020)
 Q-Chem 5.3.0 for Intel X86 EM64T Linux

User input:
--------------------------------------------------------------
$rem
   JOBTYPE  sp
   EXCHANGE   omegaB97X-D
   BASIS   6-311+G(2df,2pd)
   UNRESTRICTED   False
   max_scf_cycles   250
   geom_opt_max_cycles   1500
   basis2 6-31G*
   scf_algorithm rca_diis
   SYM_IGNORE  TRUE
   print_input   true
   geom_opt_dmax   80
   pop_mulliken false
   XC_GRID 000075000302
$end

$molecule
0 1
C       -5.5785036291     0.5276886731     -0.0826035248
C       -4.3820125213     1.3882658242     0.0621233630
H       -5.8239326968     0.3581587661     -1.1236279935
H       -6.2332341071     0.5999876827     0.7765978120
H       -4.4529873341     -0.2394889032     0.2915090651
O       -3.3038561450     -0.0099669738     0.5814399818
H       -4.3397523139     1.8878731875     1.0198017231
H       -3.9235564849     1.6312349442     -0.8876851004
H       -2.6428971651     -0.2806159438     -0.0646651630
$end
--------------------------------------------------------------

             Standard Nuclear Orientation (Angstroms)
    I     Atom           X                Y                Z
 ----------------------------------------------------------------
    1      C      -5.5785036291     0.5276886731    -0.0826035248
    2      C      -4.3820125213     1.3882658242     0.0621233630
    3      H      -5.8239326968     0.3581587661    -1.1236279935
    4      H      -6.2332341071     0.5999876827     0.7765978120
    5      H      -4.4529873341    -0.2394889032     0.2915090651
    6      O      -3.3038561450    -0.0099669738     0.5814399818
    7      H      -4.3397523139     1.8878731875     1.0198017231
    8      H      -3.9235564849     1.6312349442    -0.8876851004
    9      H      -2.6428971651    -0.2806159438    -0.0646651630
 ----------------------------------------------------------------

    7    -154.8480407819      4.27E-05 Convergence criterion met
    7    -154.9242816399      9.87E-06 Convergence criterion met
 Total energy in the final basis set = -154.92428164

                    Orbital Energies (a.u.)
 --------------------------------------------------------------

 Alpha MOs
 -- Occupied --
-19.2463 -10.3600 -10.2552  -1.0968  -0.8682  -0.6874  -0.6199  -0.5846
 -0.4888  -0.4663  -0.4381  -0.4272  -0.2993

                    Cartesian Multipole Moments
 -----------------------------------------------------------------
    Charge (ESU x 10^10)
                 0.0000
    Dipole Moment (Debye)
         X       0.7556      Y       0.9656      Z      -1.3711
       Tot       1.8394
    Quadrupole Moments (Debye-Ang)
        XX     -27.8164     XY      -4.1138     YY     -19.6629
        XZ       2.7673     YZ       0.9473     ZZ     -20.1200

 Total job time:  16.52s(wall), 85.55s(cpu)
        *  Thank you very much for using Q-Chem.  Have a nice day.  *
