 Q-Chem 5.3 (devel), Q-Chem, Inc., Pleasanton, CA (2020)
 Q-Chem 5.3.0 for Intel X86 EM64T Linux

User input:
--------------------------------------------------------------
$rem
   JOBTYPE  sp
   EXCHANGE   omegaB97X-D
   BASIS   6-311+G(2df,2pd)
   UNRESTRICTED   False
   max_scf_cycles   250
   geom_opt_max_cycles   1500
   basis2 6-31G*
   scf_algorithm rca_diis
   SYM_IGNORE  TRUE
   print_input   true
   geom_opt_dmax   80
   pop_mulliken false
   XC_GRID 000075000302
$end

$molecule
0 1
C       -5.5192985598     0.4965180311     -0.0660468595
C       -4.4024083220     1.3339019498     0.0748352328
H       -5.9255530128     0.3045561378     -1.0491505046
H       -6.2959229820     0.5075966176     0.6852526672
H       -4.4343691349     -0.0828992747     0.2679337459
O       -3.3271422883     -0.0322745470     0.5541663896
H       -4.2598700303     1.9643845786     0.9401803828
H       -3.8622188882     1.7191025219     -0.7801295724
H       -2.6539491790     -0.3477487579     -0.0541513185
$end
--------------------------------------------------------------

             Standard Nuclear Orientation (Angstroms)
    I     Atom           X                Y                Z
 ----------------------------------------------------------------
    1      C      -5.5192985598     0.4965180311    -0.0660468595
    2      C      -4.4024083220     1.3339019498     0.0748352328
    3      H      -5.9255530128     0.3045561378    -1.0491505046
    4      H      -6.2959229820     0.5075966176     0.6852526672
    5      H      -4.4343691349    -0.0828992747     0.2679337459
    6      O      -3.3271422883    -0.0322745470     0.5541663896
    7      H      -4.2598700303     1.9643845786     0.9401803828
    8      H      -3.8622188882     1.7191025219    -0.7801295724
    9      H      -2.6539491790    -0.3477487579    -0.0541513185
 ----------------------------------------------------------------

    7    -154.8411283238      3.65E-05 Convergence criterion met
    7    -154.9189582898      5.96E-06 Convergence criterion met
 Total energy in the final basis set = -154.91895829

                    Orbital Energies (a.u.)
 --------------------------------------------------------------

 Alpha MOs
 -- Occupied --
-19.2378 -10.3574 -10.2463  -1.1089  -0.8919  -0.7023  -0.6428  -0.5717
 -0.5160  -0.4531  -0.4328  -0.4267  -0.3070

                    Cartesian Multipole Moments
 -----------------------------------------------------------------
    Charge (ESU x 10^10)
                -0.0000
    Dipole Moment (Debye)
         X       0.6106      Y       1.0684      Z      -1.3873
       Tot       1.8544
    Quadrupole Moments (Debye-Ang)
        XX     -25.2223     XY      -4.4455     YY     -18.9025
        XZ       3.3323     YZ       0.9414     ZZ     -20.7825

 Total job time:  17.02s(wall), 88.07s(cpu)
        *  Thank you very much for using Q-Chem.  Have a nice day.  *
