 Q-Chem 5.3 (devel), Q-Chem, Inc., Pleasanton, CA (2020)
 Q-Chem 5.3.0 for Intel X86 EM64T Linux

User input:
--------------------------------------------------------------
$rem
   JOBTYPE  sp
   EXCHANGE   omegaB97X-D
   BASIS   6-311+G(2df,2pd)
   UNRESTRICTED   False
   max_scf_cycles   250
   geom_opt_max_cycles   1500
   basis2 6-31G*
   scf_algorithm rca_diis
   SYM_IGNORE  TRUE
   print_input   true
   geom_opt_dmax   80
   pop_mulliken false
   XC_GRID 000075000302
$end

$molecule
0 1
C       -5.5589399651     0.6018207588     -0.0847805422
C       -4.4016859857     1.3818486894     0.0668838242
H       -5.8624637640     0.2529833110     -1.0612267720
H       -6.2700252942     0.5043763544     0.7217951289
H       -4.5096612838     -0.2601361299     0.2707289284
O       -3.3183328020     -0.0175860837     0.5803963996
H       -4.2412503115     1.9674197534     0.9605506217
H       -3.8488290156     1.7166842875     -0.8012411721
H       -2.6695439755     -0.2842736839     -0.0802162531
$end
--------------------------------------------------------------

             Standard Nuclear Orientation (Angstroms)
    I     Atom           X                Y                Z
 ----------------------------------------------------------------
    1      C      -5.5589399651     0.6018207588    -0.0847805422
    2      C      -4.4016859857     1.3818486894     0.0668838242
    3      H      -5.8624637640     0.2529833110    -1.0612267720
    4      H      -6.2700252942     0.5043763544     0.7217951289
    5      H      -4.5096612838    -0.2601361299     0.2707289284
    6      O      -3.3183328020    -0.0175860837     0.5803963996
    7      H      -4.2412503115     1.9674197534     0.9605506217
    8      H      -3.8488290156     1.7166842875    -0.8012411721
    9      H      -2.6695439755    -0.2842736839    -0.0802162531
 ----------------------------------------------------------------

    7    -154.8597916854      4.08E-05 Convergence criterion met
    7    -154.9356711406      7.38E-06 Convergence criterion met
 Total energy in the final basis set = -154.93567114

                    Orbital Energies (a.u.)
 --------------------------------------------------------------

 Alpha MOs
 -- Occupied --
-19.2390 -10.3536 -10.2553  -1.0868  -0.8775  -0.7002  -0.6083  -0.5704
 -0.5108  -0.4604  -0.4409  -0.4246  -0.3025

                    Cartesian Multipole Moments
 -----------------------------------------------------------------
    Charge (ESU x 10^10)
                 0.0000
    Dipole Moment (Debye)
         X       0.4770      Y       0.7165      Z      -1.4105
       Tot       1.6524
    Quadrupole Moments (Debye-Ang)
        XX     -24.9461     XY      -2.0982     YY     -19.3103
        XZ       2.9844     YZ       1.0544     ZZ     -20.7595

 Total job time:  16.18s(wall), 84.88s(cpu)
        *  Thank you very much for using Q-Chem.  Have a nice day.  *
