 Q-Chem 5.3 (devel), Q-Chem, Inc., Pleasanton, CA (2020)
 Q-Chem 5.3.0 for Intel X86 EM64T Linux

User input:
--------------------------------------------------------------
$rem
   JOBTYPE  sp
   EXCHANGE   omegaB97X-D
   BASIS   6-311+G(2df,2pd)
   UNRESTRICTED   False
   max_scf_cycles   250
   geom_opt_max_cycles   1500
   basis2 6-31G*
   scf_algorithm rca_diis
   SYM_IGNORE  TRUE
   print_input   true
   geom_opt_dmax   80
   pop_mulliken false
   XC_GRID 000075000302
$end

$molecule
0 1
C       -5.5312100363     0.5563157052     -0.0701671046
C       -4.4545323745     1.4454929399     0.0458991900
H       -5.8746069154     0.2819882866     -1.0591321365
H       -6.2593655569     0.5062250903     0.7277712214
H       -4.5637548095     -0.2143206451     0.2321110575
O       -3.2373413683     -0.1116539004     0.6044447879
H       -4.2708234864     2.0008059499     0.9527861583
H       -3.9178298436     1.7850008939     -0.8285681789
H       -2.5712680063     -0.3867170632     -0.0322548318
$end
--------------------------------------------------------------

             Standard Nuclear Orientation (Angstroms)
    I     Atom           X                Y                Z
 ----------------------------------------------------------------
    1      C      -5.5312100363     0.5563157052    -0.0701671046
    2      C      -4.4545323745     1.4454929399     0.0458991900
    3      H      -5.8746069154     0.2819882866    -1.0591321365
    4      H      -6.2593655569     0.5062250903     0.7277712214
    5      H      -4.5637548095    -0.2143206451     0.2321110575
    6      O      -3.2373413683    -0.1116539004     0.6044447879
    7      H      -4.2708234864     2.0008059499     0.9527861583
    8      H      -3.9178298436     1.7850008939    -0.8285681789
    9      H      -2.5712680063    -0.3867170632    -0.0322548318
 ----------------------------------------------------------------

    8    -154.8561066644      5.48E-05 Convergence criterion met
    9    -154.9335740301      3.68E-06 Convergence criterion met
 Total energy in the final basis set = -154.93357403

                    Orbital Energies (a.u.)
 --------------------------------------------------------------

 Alpha MOs
 -- Occupied --
-19.2022 -10.3669 -10.2755  -1.0346  -0.8966  -0.7125  -0.5890  -0.5749
 -0.5136  -0.4669  -0.4346  -0.3758  -0.3165

                    Cartesian Multipole Moments
 -----------------------------------------------------------------
    Charge (ESU x 10^10)
                 0.0000
    Dipole Moment (Debye)
         X      -0.9406      Y       1.6221      Z      -1.8412
       Tot       2.6280
    Quadrupole Moments (Debye-Ang)
        XX     -12.3382     XY      -6.6821     YY     -17.9409
        XZ       4.5505     YZ       1.0653     ZZ     -20.8242

 Total job time:  15.78s(wall), 85.44s(cpu)
        *  Thank you very much for using Q-Chem.  Have a nice day.  *
