 Q-Chem 5.3 (devel), Q-Chem, Inc., Pleasanton, CA (2020)
 Q-Chem 5.3.0 for Intel X86 EM64T Linux

User input:
--------------------------------------------------------------
$rem
   JOBTYPE  sp
   EXCHANGE   omegaB97X-D
   BASIS   6-311+G(2df,2pd)
   UNRESTRICTED   False
   max_scf_cycles   250
   geom_opt_max_cycles   1500
   basis2 6-31G*
   scf_algorithm rca_diis
   SYM_IGNORE  TRUE
   print_input   true
   geom_opt_dmax   80
   pop_mulliken false
   XC_GRID 000075000302
$end

$molecule
0 1
C       -5.5822830372     0.5586667899     -0.0707525163
C       -4.4158016461     1.3332986848     0.0660966337
H       -5.9345836272     0.3325298740     -1.0689153090
H       -6.3320918505     0.6040594419     0.7072145336
H       -4.4692501574     -0.3059155278     0.2619554417
O       -3.2714144905     -0.0295426766     0.5734331622
H       -4.2463622358     1.9246387422     0.9540988787
H       -3.8753807573     1.6664559417     -0.8103189617
H       -2.5535645954     -0.2210540130     -0.0399216997
$end
--------------------------------------------------------------

             Standard Nuclear Orientation (Angstroms)
    I     Atom           X                Y                Z
 ----------------------------------------------------------------
    1      C      -5.5822830372     0.5586667899    -0.0707525163
    2      C      -4.4158016461     1.3332986848     0.0660966337
    3      H      -5.9345836272     0.3325298740    -1.0689153090
    4      H      -6.3320918505     0.6040594419     0.7072145336
    5      H      -4.4692501574    -0.3059155278     0.2619554417
    6      O      -3.2714144905    -0.0295426766     0.5734331622
    7      H      -4.2463622358     1.9246387422     0.9540988787
    8      H      -3.8753807573     1.6664559417    -0.8103189617
    9      H      -2.5535645954    -0.2210540130    -0.0399216997
 ----------------------------------------------------------------

    7    -154.8599739777      4.40E-05 Convergence criterion met
    7    -154.9361465916      7.34E-06 Convergence criterion met
 Total energy in the final basis set = -154.93614659

                    Orbital Energies (a.u.)
 --------------------------------------------------------------

 Alpha MOs
 -- Occupied --
-19.2399 -10.3534 -10.2588  -1.0837  -0.8775  -0.6963  -0.6133  -0.5716
 -0.5080  -0.4566  -0.4350  -0.4212  -0.3094

                    Cartesian Multipole Moments
 -----------------------------------------------------------------
    Charge (ESU x 10^10)
                -0.0000
    Dipole Moment (Debye)
         X       0.4763      Y       1.0372      Z      -1.4334
       Tot       1.8323
    Quadrupole Moments (Debye-Ang)
        XX     -24.0867     XY      -4.0282     YY     -19.3895
        XZ       3.3276     YZ       0.8955     ZZ     -20.8583

 Total job time:  16.03s(wall), 82.64s(cpu)
        *  Thank you very much for using Q-Chem.  Have a nice day.  *
