 Q-Chem 5.3 (devel), Q-Chem, Inc., Pleasanton, CA (2020)
 Q-Chem 5.3.0 for Intel X86 EM64T Linux

User input:
--------------------------------------------------------------
$rem
   JOBTYPE  sp
   EXCHANGE   omegaB97X-D
   BASIS   6-311+G(2df,2pd)
   UNRESTRICTED   False
   max_scf_cycles   250
   geom_opt_max_cycles   1500
   basis2 6-31G*
   scf_algorithm rca_diis
   SYM_IGNORE  TRUE
   print_input   true
   geom_opt_dmax   80
   pop_mulliken false
   XC_GRID 000075000302
$end

$molecule
0 1
C       -5.5081396676     0.5543369192     -0.0686218850
C       -4.4680876943     1.3514703976     0.0395652226
H       -5.8238414631     0.3709292959     -1.0829472027
H       -6.2191702225     0.5942868756     0.7398046924
H       -4.5051102251     -0.2672808542     0.2887866078
O       -3.2958754456     0.0168814737     0.5901555442
H       -4.2995786733     1.8617543864     0.9714126578
H       -3.9160561776     1.6357553243     -0.8405607040
H       -2.6448728281     -0.2549965614     -0.0647047698
$end
--------------------------------------------------------------

             Standard Nuclear Orientation (Angstroms)
    I     Atom           X                Y                Z
 ----------------------------------------------------------------
    1      C      -5.5081396676     0.5543369192    -0.0686218850
    2      C      -4.4680876943     1.3514703976     0.0395652226
    3      H      -5.8238414631     0.3709292959    -1.0829472027
    4      H      -6.2191702225     0.5942868756     0.7398046924
    5      H      -4.5051102251    -0.2672808542     0.2887866078
    6      O      -3.2958754456     0.0168814737     0.5901555442
    7      H      -4.2995786733     1.8617543864     0.9714126578
    8      H      -3.9160561776     1.6357553243    -0.8405607040
    9      H      -2.6448728281    -0.2549965614    -0.0647047698
 ----------------------------------------------------------------

    7    -154.8473742478      3.17E-05 Convergence criterion met
    7    -154.9247325170      7.34E-06 Convergence criterion met
 Total energy in the final basis set = -154.92473252

                    Orbital Energies (a.u.)
 --------------------------------------------------------------

 Alpha MOs
 -- Occupied --
-19.2241 -10.3391 -10.2480  -1.0758  -0.9037  -0.6903  -0.6118  -0.5854
 -0.5108  -0.4625  -0.4354  -0.4082  -0.3133

                    Cartesian Multipole Moments
 -----------------------------------------------------------------
    Charge (ESU x 10^10)
                 0.0000
    Dipole Moment (Debye)
         X      -0.0905      Y       0.9699      Z      -1.5830
       Tot       1.8587
    Quadrupole Moments (Debye-Ang)
        XX     -19.8502     XY      -4.2690     YY     -19.1950
        XZ       3.6408     YZ       0.7153     ZZ     -20.4236

 Total job time:  16.13s(wall), 84.73s(cpu)
        *  Thank you very much for using Q-Chem.  Have a nice day.  *
