 Q-Chem 5.3 (devel), Q-Chem, Inc., Pleasanton, CA (2020)
 Q-Chem 5.3.0 for Intel X86 EM64T Linux

User input:
--------------------------------------------------------------
$rem
   JOBTYPE  sp
   EXCHANGE   omegaB97X-D
   BASIS   6-311+G(2df,2pd)
   UNRESTRICTED   False
   max_scf_cycles   250
   geom_opt_max_cycles   1500
   basis2 6-31G*
   scf_algorithm rca_diis
   SYM_IGNORE  TRUE
   print_input   true
   geom_opt_dmax   80
   pop_mulliken false
   XC_GRID 000075000302
$end

$molecule
0 1
C       -5.5413902978     0.5387082540     -0.0909394460
C       -4.4110643704     1.3687605514     0.0716911541
H       -5.8710821465     0.3315151744     -1.0358645924
H       -6.3417047895     0.5617491735     0.7323006427
H       -4.4648581432     -0.3094748101     0.2800923780
O       -3.2933150862     -0.0187869888     0.5866990251
H       -4.2713558491     1.9340516979     0.9240171640
H       -3.8484290196     1.7279801998     -0.8229892779
H       -2.6375326949     -0.2713659949     -0.0721168842
$end
--------------------------------------------------------------

             Standard Nuclear Orientation (Angstroms)
    I     Atom           X                Y                Z
 ----------------------------------------------------------------
    1      C      -5.5413902978     0.5387082540    -0.0909394460
    2      C      -4.4110643704     1.3687605514     0.0716911541
    3      H      -5.8710821465     0.3315151744    -1.0358645924
    4      H      -6.3417047895     0.5617491735     0.7323006427
    5      H      -4.4648581432    -0.3094748101     0.2800923780
    6      O      -3.2933150862    -0.0187869888     0.5866990251
    7      H      -4.2713558491     1.9340516979     0.9240171640
    8      H      -3.8484290196     1.7279801998    -0.8229892779
    9      H      -2.6375326949    -0.2713659949    -0.0721168842
 ----------------------------------------------------------------

    7    -154.8543100240      4.12E-05 Convergence criterion met
    7    -154.9300248808      4.30E-06 Convergence criterion met
 Total energy in the final basis set = -154.93002488

                    Orbital Energies (a.u.)
 --------------------------------------------------------------

 Alpha MOs
 -- Occupied --
-19.2424 -10.3529 -10.2547  -1.0886  -0.8754  -0.7007  -0.6119  -0.5682
 -0.5105  -0.4529  -0.4420  -0.4277  -0.3052

                    Cartesian Multipole Moments
 -----------------------------------------------------------------
    Charge (ESU x 10^10)
                 0.0000
    Dipole Moment (Debye)
         X       0.4935      Y       0.9623      Z      -1.4583
       Tot       1.8156
    Quadrupole Moments (Debye-Ang)
        XX     -24.8153     XY      -3.7766     YY     -19.0570
        XZ       3.3334     YZ       0.9093     ZZ     -20.8278

 Total job time:  15.10s(wall), 78.34s(cpu)
        *  Thank you very much for using Q-Chem.  Have a nice day.  *
