 Q-Chem 5.3 (devel), Q-Chem, Inc., Pleasanton, CA (2020)
 Q-Chem 5.3.0 for Intel X86 EM64T Linux

User input:
--------------------------------------------------------------
$rem
   JOBTYPE  sp
   EXCHANGE   omegaB97X-D
   BASIS   6-311+G(2df,2pd)
   UNRESTRICTED   False
   max_scf_cycles   250
   geom_opt_max_cycles   1500
   basis2 6-31G*
   scf_algorithm rca_diis
   SYM_IGNORE  TRUE
   print_input   true
   geom_opt_dmax   80
   pop_mulliken false
   XC_GRID 000075000302
$end

$molecule
0 1
C       -5.4281258225     0.4869453926     -0.0768535866
C       -4.4003623852     1.4638066261     0.0594204390
H       -5.7835860288     0.2706740876     -1.0759803708
H       -6.1804088917     0.4539051016     0.7012984078
H       -4.4486972925     -0.3111372254     0.3565657435
O       -3.3437789758     0.0100673065     0.6042618252
H       -4.2997724608     2.0667809434     0.9532885308
H       -3.8612097571     1.8511363133     -0.7985536172
H       -2.9347907829     -0.4290412886     -0.1505572085
$end
--------------------------------------------------------------

             Standard Nuclear Orientation (Angstroms)
    I     Atom           X                Y                Z
 ----------------------------------------------------------------
    1      C      -5.4281258225     0.4869453926    -0.0768535866
    2      C      -4.4003623852     1.4638066261     0.0594204390
    3      H      -5.7835860288     0.2706740876    -1.0759803708
    4      H      -6.1804088917     0.4539051016     0.7012984078
    5      H      -4.4486972925    -0.3111372254     0.3565657435
    6      O      -3.3437789758     0.0100673065     0.6042618252
    7      H      -4.2997724608     2.0667809434     0.9532885308
    8      H      -3.8612097571     1.8511363133    -0.7985536172
    9      H      -2.9347907829    -0.4290412886    -0.1505572085
 ----------------------------------------------------------------

    7    -154.8495039323      3.73E-05 Convergence criterion met
    7    -154.9239758628      9.44E-06 Convergence criterion met
 Total energy in the final basis set = -154.92397586

                    Orbital Energies (a.u.)
 --------------------------------------------------------------

 Alpha MOs
 -- Occupied --
-19.2426 -10.3561 -10.2471  -1.1010  -0.8676  -0.7041  -0.6008  -0.5625
 -0.5074  -0.4767  -0.4476  -0.4321  -0.2899

                    Cartesian Multipole Moments
 -----------------------------------------------------------------
    Charge (ESU x 10^10)
                -0.0000
    Dipole Moment (Debye)
         X       0.2137      Y       0.8308      Z      -1.3983
       Tot       1.6404
    Quadrupole Moments (Debye-Ang)
        XX     -24.2083     XY      -3.2465     YY     -18.0080
        XZ       2.8989     YZ       0.9652     ZZ     -20.6516

 Total job time:  16.36s(wall), 85.14s(cpu)
        *  Thank you very much for using Q-Chem.  Have a nice day.  *
