 Q-Chem 5.3 (devel), Q-Chem, Inc., Pleasanton, CA (2020)
 Q-Chem 5.3.0 for Intel X86 EM64T Linux

User input:
--------------------------------------------------------------
$rem
   JOBTYPE  sp
   EXCHANGE   omegaB97X-D
   BASIS   6-311+G(2df,2pd)
   UNRESTRICTED   False
   max_scf_cycles   250
   geom_opt_max_cycles   1500
   basis2 6-31G*
   scf_algorithm rca_diis
   SYM_IGNORE  TRUE
   print_input   true
   geom_opt_dmax   80
   pop_mulliken false
   XC_GRID 000075000302
$end

$molecule
0 1
C       -5.5506595545     0.5318148403     -0.0737309694
C       -4.3910422941     1.3312363022     0.0757627579
H       -5.9038073810     0.3300504800     -1.0768566376
H       -6.3122243179     0.5949031470     0.6922481593
H       -4.4119414867     -0.3499450814     0.3212354798
O       -3.3236398338     0.0196059260     0.5763289333
H       -4.2578239739     1.9487062726     0.9539830512
H       -3.8475677355     1.6807196236     -0.7944969072
H       -2.6820258199     -0.2239542532     -0.1015837039
$end
--------------------------------------------------------------

             Standard Nuclear Orientation (Angstroms)
    I     Atom           X                Y                Z
 ----------------------------------------------------------------
    1      C      -5.5506595545     0.5318148403    -0.0737309694
    2      C      -4.3910422941     1.3312363022     0.0757627579
    3      H      -5.9038073810     0.3300504800    -1.0768566376
    4      H      -6.3122243179     0.5949031470     0.6922481593
    5      H      -4.4119414867    -0.3499450814     0.3212354798
    6      O      -3.3236398338     0.0196059260     0.5763289333
    7      H      -4.2578239739     1.9487062726     0.9539830512
    8      H      -3.8475677355     1.6807196236    -0.7944969072
    9      H      -2.6820258199    -0.2239542532    -0.1015837039
 ----------------------------------------------------------------

    7    -154.8613911363      3.62E-05 Convergence criterion met
    7    -154.9365037444      6.49E-06 Convergence criterion met
 Total energy in the final basis set = -154.93650374

                    Orbital Energies (a.u.)
 --------------------------------------------------------------

 Alpha MOs
 -- Occupied --
-19.2664 -10.3489 -10.2426  -1.1219  -0.8656  -0.6930  -0.6325  -0.5676
 -0.5060  -0.4611  -0.4574  -0.4350  -0.2937

                    Cartesian Multipole Moments
 -----------------------------------------------------------------
    Charge (ESU x 10^10)
                 0.0000
    Dipole Moment (Debye)
         X       1.2296      Y       0.6932      Z      -1.2339
       Tot       1.8749
    Quadrupole Moments (Debye-Ang)
        XX     -31.3546     XY      -2.5910     YY     -19.6213
        XZ       2.5616     YZ       0.8477     ZZ     -20.8219

 Total job time:  13.65s(wall), 70.93s(cpu)
        *  Thank you very much for using Q-Chem.  Have a nice day.  *
