 Q-Chem 5.3 (devel), Q-Chem, Inc., Pleasanton, CA (2020)
 Q-Chem 5.3.0 for Intel X86 EM64T Linux

User input:
--------------------------------------------------------------
$rem
   JOBTYPE  sp
   EXCHANGE   omegaB97X-D
   BASIS   6-311+G(2df,2pd)
   UNRESTRICTED   False
   max_scf_cycles   250
   geom_opt_max_cycles   1500
   basis2 6-31G*
   scf_algorithm rca_diis
   SYM_IGNORE  TRUE
   print_input   true
   geom_opt_dmax   80
   pop_mulliken false
   XC_GRID 000075000302
$end

$molecule
0 1
C       -5.5489383770     0.5458582519     -0.0822600662
C       -4.4209012374     1.3845088036     0.0454220269
H       -5.9282015054     0.3841980009     -1.0827838554
H       -6.2784891270     0.4892178883     0.7153134428
H       -4.4797502744     -0.3041810332     0.3603321734
O       -3.2839688492     -0.0076306654     0.5427236268
H       -4.2925727188     1.9852790820     0.9353341712
H       -3.8475409126     1.7204010659     -0.8091047815
H       -2.6003693955     -0.3345141369     -0.0520865748
$end
--------------------------------------------------------------

             Standard Nuclear Orientation (Angstroms)
    I     Atom           X                Y                Z
 ----------------------------------------------------------------
    1      C      -5.5489383770     0.5458582519    -0.0822600662
    2      C      -4.4209012374     1.3845088036     0.0454220269
    3      H      -5.9282015054     0.3841980009    -1.0827838554
    4      H      -6.2784891270     0.4892178883     0.7153134428
    5      H      -4.4797502744    -0.3041810332     0.3603321734
    6      O      -3.2839688492    -0.0076306654     0.5427236268
    7      H      -4.2925727188     1.9852790820     0.9353341712
    8      H      -3.8475409126     1.7204010659    -0.8091047815
    9      H      -2.6003693955    -0.3345141369    -0.0520865748
 ----------------------------------------------------------------

    7    -154.8585593467      4.08E-05 Convergence criterion met
    8    -154.9345467675      9.59E-06 Convergence criterion met
 Total energy in the final basis set = -154.93454677

                    Orbital Energies (a.u.)
 --------------------------------------------------------------

 Alpha MOs
 -- Occupied --
-19.2381 -10.3526 -10.2561  -1.0825  -0.8734  -0.6972  -0.6145  -0.5657
 -0.5059  -0.4595  -0.4310  -0.4218  -0.3058

                    Cartesian Multipole Moments
 -----------------------------------------------------------------
    Charge (ESU x 10^10)
                 0.0000
    Dipole Moment (Debye)
         X       0.4367      Y       0.8299      Z      -1.2925
       Tot       1.5968
    Quadrupole Moments (Debye-Ang)
        XX     -24.1183     XY      -3.3412     YY     -18.9797
        XZ       2.6752     YZ       0.5887     ZZ     -20.7327

 Total job time:  20.08s(wall), 105.32s(cpu)
        *  Thank you very much for using Q-Chem.  Have a nice day.  *
