 Q-Chem 5.3 (devel), Q-Chem, Inc., Pleasanton, CA (2020)
 Q-Chem 5.3.0 for Intel X86 EM64T Linux

User input:
--------------------------------------------------------------
$rem
   JOBTYPE  sp
   EXCHANGE   omegaB97X-D
   BASIS   6-311+G(2df,2pd)
   UNRESTRICTED   False
   max_scf_cycles   250
   geom_opt_max_cycles   1500
   basis2 6-31G*
   scf_algorithm rca_diis
   SYM_IGNORE  TRUE
   print_input   true
   geom_opt_dmax   80
   pop_mulliken false
   XC_GRID 000075000302
$end

$molecule
0 1
C       -5.5366446778     0.5377901957     -0.1091472597
C       -4.4119017924     1.3709512047     0.0782596647
H       -5.8443639652     0.3473811408     -1.0001168036
H       -6.3858317593     0.5559802950     0.7595697067
H       -4.4628697760     -0.3097346198     0.2706996589
O       -3.2938129881     -0.0187369182     0.5864902839
H       -4.2835634049     1.9063577525     0.8933010606
H       -3.8285444948     1.7445691984     -0.8392733593
H       -2.6331995388     -0.2714209919     -0.0668927890
$end
--------------------------------------------------------------

             Standard Nuclear Orientation (Angstroms)
    I     Atom           X                Y                Z
 ----------------------------------------------------------------
    1      C      -5.5366446778     0.5377901957    -0.1091472597
    2      C      -4.4119017924     1.3709512047     0.0782596647
    3      H      -5.8443639652     0.3473811408    -1.0001168036
    4      H      -6.3858317593     0.5559802950     0.7595697067
    5      H      -4.4628697760    -0.3097346198     0.2706996589
    6      O      -3.2938129881    -0.0187369182     0.5864902839
    7      H      -4.2835634049     1.9063577525     0.8933010606
    8      H      -3.8285444948     1.7445691984    -0.8392733593
    9      H      -2.6331995388    -0.2714209919    -0.0668927890
 ----------------------------------------------------------------

    7    -154.8302345012      4.22E-05 Convergence criterion met
    7    -154.9069982046      4.56E-06 Convergence criterion met
 Total energy in the final basis set = -154.90699820

                    Orbital Energies (a.u.)
 --------------------------------------------------------------

 Alpha MOs
 -- Occupied --
-19.2426 -10.3517 -10.2546  -1.0889  -0.8777  -0.7084  -0.6132  -0.5660
 -0.5172  -0.4505  -0.4404  -0.4275  -0.3057

                    Cartesian Multipole Moments
 -----------------------------------------------------------------
    Charge (ESU x 10^10)
                 0.0000
    Dipole Moment (Debye)
         X       0.5220      Y       0.9602      Z      -1.4664
       Tot       1.8289
    Quadrupole Moments (Debye-Ang)
        XX     -25.0616     XY      -3.7751     YY     -19.0432
        XZ       3.3968     YZ       0.9089     ZZ     -20.8433

 Total job time:  14.70s(wall), 76.20s(cpu)
        *  Thank you very much for using Q-Chem.  Have a nice day.  *
