 Q-Chem 5.3 (devel), Q-Chem, Inc., Pleasanton, CA (2020)
 Q-Chem 5.3.0 for Intel X86 EM64T Linux

User input:
--------------------------------------------------------------
$rem
   JOBTYPE  sp
   EXCHANGE   omegaB97X-D
   BASIS   6-311+G(2df,2pd)
   UNRESTRICTED   False
   max_scf_cycles   250
   geom_opt_max_cycles   1500
   basis2 6-31G*
   scf_algorithm rca_diis
   SYM_IGNORE  TRUE
   print_input   true
   geom_opt_dmax   80
   pop_mulliken false
   XC_GRID 000075000302
$end

$molecule
0 1
C       -5.5307465660     0.5247952483     -0.1057640726
C       -4.4128819585     1.3719117334     0.0632841474
H       -5.8871211348     0.3109812972     -1.1041659943
H       -6.2682459896     0.5014393252     0.6860296673
H       -4.4205676360     -0.2131647700     0.3577099673
O       -3.1752509844     0.0824476467     0.6284693624
H       -4.2858618477     1.9445651746     0.9706860380
H       -3.8520071965     1.7399823985     -0.7858444082
H       -2.8480490839     -0.3998207968     -0.1375145441
$end
--------------------------------------------------------------

             Standard Nuclear Orientation (Angstroms)
    I     Atom           X                Y                Z
 ----------------------------------------------------------------
    1      C      -5.5307465660     0.5247952483    -0.1057640726
    2      C      -4.4128819585     1.3719117334     0.0632841474
    3      H      -5.8871211348     0.3109812972    -1.1041659943
    4      H      -6.2682459896     0.5014393252     0.6860296673
    5      H      -4.4205676360    -0.2131647700     0.3577099673
    6      O      -3.1752509844     0.0824476467     0.6284693624
    7      H      -4.2858618477     1.9445651746     0.9706860380
    8      H      -3.8520071965     1.7399823985    -0.7858444082
    9      H      -2.8480490839    -0.3998207968    -0.1375145441
 ----------------------------------------------------------------

    7    -154.8559946133      4.75E-05 Convergence criterion met
    8    -154.9316567772      4.29E-06 Convergence criterion met
 Total energy in the final basis set = -154.93165678

                    Orbital Energies (a.u.)
 --------------------------------------------------------------

 Alpha MOs
 -- Occupied --
-19.2346 -10.3614 -10.2663  -1.0813  -0.8826  -0.7035  -0.5937  -0.5657
 -0.5215  -0.4698  -0.4510  -0.4086  -0.3088

                    Cartesian Multipole Moments
 -----------------------------------------------------------------
    Charge (ESU x 10^10)
                -0.0000
    Dipole Moment (Debye)
         X      -0.4926      Y       0.8020      Z      -1.5718
       Tot       1.8320
    Quadrupole Moments (Debye-Ang)
        XX     -18.2272     XY      -3.7059     YY     -18.5792
        XZ       3.4337     YZ       0.8827     ZZ     -20.5900

 Total job time:  16.09s(wall), 84.97s(cpu)
        *  Thank you very much for using Q-Chem.  Have a nice day.  *
