 Q-Chem 5.3 (devel), Q-Chem, Inc., Pleasanton, CA (2020)
 Q-Chem 5.3.0 for Intel X86 EM64T Linux

User input:
--------------------------------------------------------------
$rem
   JOBTYPE  sp
   EXCHANGE   omegaB97X-D
   BASIS   6-311+G(2df,2pd)
   UNRESTRICTED   False
   max_scf_cycles   250
   geom_opt_max_cycles   1500
   basis2 6-31G*
   scf_algorithm rca_diis
   SYM_IGNORE  TRUE
   print_input   true
   geom_opt_dmax   80
   pop_mulliken false
   XC_GRID 000075000302
$end

$molecule
0 1
C       -5.5489801489     0.5507300894     -0.0912504070
C       -4.4320793806     1.4059882189     0.0247541527
H       -5.9556566620     0.4504898025     -1.0887869782
H       -6.2520298803     0.4095024829     0.7203304208
H       -4.4896473795     -0.2918478066     0.4333317201
O       -3.2771881674     -0.0144017135     0.4983477591
H       -4.3294392794     2.0130022144     0.9143015411
H       -3.8303039252     1.7356658798     -0.8120086869
H       -2.5654075739     -0.3959919105     -0.0261293584
$end
--------------------------------------------------------------

             Standard Nuclear Orientation (Angstroms)
    I     Atom           X                Y                Z
 ----------------------------------------------------------------
    1      C      -5.5489801489     0.5507300894    -0.0912504070
    2      C      -4.4320793806     1.4059882189     0.0247541527
    3      H      -5.9556566620     0.4504898025    -1.0887869782
    4      H      -6.2520298803     0.4095024829     0.7203304208
    5      H      -4.4896473795    -0.2918478066     0.4333317201
    6      O      -3.2771881674    -0.0144017135     0.4983477591
    7      H      -4.3294392794     2.0130022144     0.9143015411
    8      H      -3.8303039252     1.7356658798    -0.8120086869
    9      H      -2.5654075739    -0.3959919105    -0.0261293584
 ----------------------------------------------------------------

    7    -154.8493481523      4.17E-05 Convergence criterion met
    9    -154.9265514255      2.55E-06 Convergence criterion met
 Total energy in the final basis set = -154.92655143

                    Orbital Energies (a.u.)
 --------------------------------------------------------------

 Alpha MOs
 -- Occupied --
-19.2325 -10.3503 -10.2595  -1.0748  -0.8729  -0.6975  -0.6164  -0.5630
 -0.5063  -0.4617  -0.4257  -0.4099  -0.3058

                    Cartesian Multipole Moments
 -----------------------------------------------------------------
    Charge (ESU x 10^10)
                 0.0000
    Dipole Moment (Debye)
         X       0.3233      Y       0.7413      Z      -1.1222
       Tot       1.3833
    Quadrupole Moments (Debye-Ang)
        XX     -22.9386     XY      -3.0344     YY     -18.8690
        XZ       2.0470     YZ       0.2716     ZZ     -20.6497

 Total job time:  21.28s(wall), 113.03s(cpu)
        *  Thank you very much for using Q-Chem.  Have a nice day.  *
