 Q-Chem 5.3 (devel), Q-Chem, Inc., Pleasanton, CA (2020)
 Q-Chem 5.3.0 for Intel X86 EM64T Linux

User input:
--------------------------------------------------------------
$rem
   JOBTYPE  sp
   EXCHANGE   omegaB97X-D
   BASIS   6-311+G(2df,2pd)
   UNRESTRICTED   False
   max_scf_cycles   250
   geom_opt_max_cycles   1500
   basis2 6-31G*
   scf_algorithm rca_diis
   SYM_IGNORE  TRUE
   print_input   true
   geom_opt_dmax   80
   pop_mulliken false
   XC_GRID 000075000302
$end

$molecule
0 1
C       -5.5575667329     0.5456671824     -0.0708834459
C       -4.4267520376     1.3784914920     0.0443333836
H       -5.8643946393     0.3071698225     -1.0812618615
H       -6.3422085886     0.5711003953     0.6731781025
H       -4.4812150049     -0.2994830780     0.3292473709
O       -3.3072870811     -0.0019555102     0.5913067170
H       -4.1094573442     1.8426968355     0.9642575581
H       -3.9827184303     1.7843917234     -0.8597417403
H       -2.6091325384     -0.2649416059     -0.0175459213
$end
--------------------------------------------------------------

             Standard Nuclear Orientation (Angstroms)
    I     Atom           X                Y                Z
 ----------------------------------------------------------------
    1      C      -5.5575667329     0.5456671824    -0.0708834459
    2      C      -4.4267520376     1.3784914920     0.0443333836
    3      H      -5.8643946393     0.3071698225    -1.0812618615
    4      H      -6.3422085886     0.5711003953     0.6731781025
    5      H      -4.4812150049    -0.2994830780     0.3292473709
    6      O      -3.3072870811    -0.0019555102     0.5913067170
    7      H      -4.1094573442     1.8426968355     0.9642575581
    8      H      -3.9827184303     1.7843917234    -0.8597417403
    9      H      -2.6091325384    -0.2649416059    -0.0175459213
 ----------------------------------------------------------------

    7    -154.8566444699      4.13E-05 Convergence criterion met
    7    -154.9324548885      7.61E-06 Convergence criterion met
 Total energy in the final basis set = -154.93245489

                    Orbital Energies (a.u.)
 --------------------------------------------------------------

 Alpha MOs
 -- Occupied --
-19.2394 -10.3513 -10.2551  -1.0864  -0.8741  -0.6971  -0.6178  -0.5646
 -0.5044  -0.4549  -0.4429  -0.4189  -0.3060

                    Cartesian Multipole Moments
 -----------------------------------------------------------------
    Charge (ESU x 10^10)
                 0.0000
    Dipole Moment (Debye)
         X       0.5508      Y       0.8810      Z      -1.4004
       Tot       1.7437
    Quadrupole Moments (Debye-Ang)
        XX     -25.0051     XY      -3.3607     YY     -19.2693
        XZ       3.3976     YZ       0.6051     ZZ     -20.8281

 Total job time:  14.64s(wall), 78.08s(cpu)
        *  Thank you very much for using Q-Chem.  Have a nice day.  *
