 Q-Chem 5.3 (devel), Q-Chem, Inc., Pleasanton, CA (2020)
 Q-Chem 5.3.0 for Intel X86 EM64T Linux

User input:
--------------------------------------------------------------
$rem
   JOBTYPE  sp
   EXCHANGE   omegaB97X-D
   BASIS   6-311+G(2df,2pd)
   UNRESTRICTED   False
   max_scf_cycles   250
   geom_opt_max_cycles   1500
   basis2 6-31G*
   scf_algorithm rca_diis
   SYM_IGNORE  TRUE
   print_input   true
   geom_opt_dmax   80
   pop_mulliken false
   XC_GRID 000075000302
$end

$molecule
0 1
C       -5.4911362634     0.5849723693     -0.0674246101
C       -4.3518368672     1.3966826438     0.0671912447
H       -5.9983875565     0.3328660339     -0.9927089019
H       -6.3482888179     0.5554473258     0.5954064669
H       -4.4384927816     -0.2913695767     0.2956561808
O       -3.2647245630     0.0038404966     0.5973995501
H       -4.2863584461     1.8931123711     1.0221370472
H       -3.8831349345     1.6399303652     -0.8744069710
H       -2.6183721671     -0.2523447720     -0.0703598435
$end
--------------------------------------------------------------

             Standard Nuclear Orientation (Angstroms)
    I     Atom           X                Y                Z
 ----------------------------------------------------------------
    1      C      -5.4911362634     0.5849723693    -0.0674246101
    2      C      -4.3518368672     1.3966826438     0.0671912447
    3      H      -5.9983875565     0.3328660339    -0.9927089019
    4      H      -6.3482888179     0.5554473258     0.5954064669
    5      H      -4.4384927816    -0.2913695767     0.2956561808
    6      O      -3.2647245630     0.0038404966     0.5973995501
    7      H      -4.2863584461     1.8931123711     1.0221370472
    8      H      -3.8831349345     1.6399303652    -0.8744069710
    9      H      -2.6183721671    -0.2523447720    -0.0703598435
 ----------------------------------------------------------------

    7    -154.8482458409      4.17E-05 Convergence criterion met
    7    -154.9240263228      4.01E-06 Convergence criterion met
 Total energy in the final basis set = -154.92402632

                    Orbital Energies (a.u.)
 --------------------------------------------------------------

 Alpha MOs
 -- Occupied --
-19.2443 -10.3575 -10.2499  -1.0913  -0.8768  -0.6949  -0.6148  -0.5794
 -0.5150  -0.4523  -0.4291  -0.4253  -0.3042

                    Cartesian Multipole Moments
 -----------------------------------------------------------------
    Charge (ESU x 10^10)
                -0.0000
    Dipole Moment (Debye)
         X       0.4134      Y       0.8904      Z      -1.4640
       Tot       1.7626
    Quadrupole Moments (Debye-Ang)
        XX     -23.7676     XY      -3.5763     YY     -19.3648
        XZ       3.4177     YZ       0.8010     ZZ     -20.9587

 Total job time:  17.47s(wall), 90.50s(cpu)
        *  Thank you very much for using Q-Chem.  Have a nice day.  *
