 Q-Chem 5.3 (devel), Q-Chem, Inc., Pleasanton, CA (2020)
 Q-Chem 5.3.0 for Intel X86 EM64T Linux

User input:
--------------------------------------------------------------
$rem
   JOBTYPE  sp
   EXCHANGE   omegaB97X-D
   BASIS   6-311+G(2df,2pd)
   UNRESTRICTED   False
   max_scf_cycles   250
   geom_opt_max_cycles   1500
   basis2 6-31G*
   scf_algorithm rca_diis
   SYM_IGNORE  TRUE
   print_input   true
   geom_opt_dmax   80
   pop_mulliken false
   XC_GRID 000075000302
$end

$molecule
0 1
C       -5.5504203377     0.5436524844     -0.0502783186
C       -4.4141871263     1.3703900523     0.0916055777
H       -5.9164205305     0.3177730786     -1.0866558505
H       -6.2707789905     0.5645705632     0.6971887579
H       -4.4692996366     -0.3080014936     0.3002501764
O       -3.2944620989     -0.0193921929     0.5959651661
H       -4.2684205081     1.9239502324     0.9233239033
H       -3.8507832676     1.7353491859     -0.8259792907
H       -2.6459599010     -0.2651546532     -0.0725299581
$end
--------------------------------------------------------------

             Standard Nuclear Orientation (Angstroms)
    I     Atom           X                Y                Z
 ----------------------------------------------------------------
    1      C      -5.5504203377     0.5436524844    -0.0502783186
    2      C      -4.4141871263     1.3703900523     0.0916055777
    3      H      -5.9164205305     0.3177730786    -1.0866558505
    4      H      -6.2707789905     0.5645705632     0.6971887579
    5      H      -4.4692996366    -0.3080014936     0.3002501764
    6      O      -3.2944620989    -0.0193921929     0.5959651661
    7      H      -4.2684205081     1.9239502324     0.9233239033
    8      H      -3.8507832676     1.7353491859    -0.8259792907
    9      H      -2.6459599010    -0.2651546532    -0.0725299581
 ----------------------------------------------------------------

    7    -154.8539298645      4.07E-05 Convergence criterion met
    7    -154.9296919102      4.20E-06 Convergence criterion met
 Total energy in the final basis set = -154.92969191

                    Orbital Energies (a.u.)
 --------------------------------------------------------------

 Alpha MOs
 -- Occupied --
-19.2427 -10.3525 -10.2539  -1.0888  -0.8758  -0.7012  -0.6095  -0.5753
 -0.5033  -0.4577  -0.4425  -0.4276  -0.3052

                    Cartesian Multipole Moments
 -----------------------------------------------------------------
    Charge (ESU x 10^10)
                 0.0000
    Dipole Moment (Debye)
         X       0.4624      Y       0.9764      Z      -1.4029
       Tot       1.7707
    Quadrupole Moments (Debye-Ang)
        XX     -24.5605     XY      -3.8357     YY     -19.0586
        XZ       3.0387     YZ       0.9431     ZZ     -20.8229

 Total job time:  17.17s(wall), 88.26s(cpu)
        *  Thank you very much for using Q-Chem.  Have a nice day.  *
