 Q-Chem 5.3 (devel), Q-Chem, Inc., Pleasanton, CA (2020)
 Q-Chem 5.3.0 for Intel X86 EM64T Linux

User input:
--------------------------------------------------------------
$rem
   JOBTYPE  sp
   EXCHANGE   omegaB97X-D
   BASIS   6-311+G(2df,2pd)
   UNRESTRICTED   False
   max_scf_cycles   250
   geom_opt_max_cycles   1500
   basis2 6-31G*
   scf_algorithm rca_diis
   SYM_IGNORE  TRUE
   print_input   true
   geom_opt_dmax   80
   pop_mulliken false
   XC_GRID 000075000302
$end

$molecule
0 1
C       -5.5081067655     0.5216692611     -0.0743580453
C       -4.4060376131     1.3995064037     0.0637080451
H       -5.8604201519     0.2992094951     -1.0732914750
H       -6.2608795653     0.5296420287     0.7030049951
H       -4.4625457320     -0.3107961249     0.3144832126
O       -3.3120241482     -0.0083493547     0.5965116497
H       -4.2719781943     1.9982147771     0.9544342830
H       -3.8634655828     1.7575887746     -0.8031148604
H       -2.7352746441     -0.3235480035     -0.1084876414
$end
--------------------------------------------------------------

             Standard Nuclear Orientation (Angstroms)
    I     Atom           X                Y                Z
 ----------------------------------------------------------------
    1      C      -5.5081067655     0.5216692611    -0.0743580453
    2      C      -4.4060376131     1.3995064037     0.0637080451
    3      H      -5.8604201519     0.2992094951    -1.0732914750
    4      H      -6.2608795653     0.5296420287     0.7030049951
    5      H      -4.4625457320    -0.3107961249     0.3144832126
    6      O      -3.3120241482    -0.0083493547     0.5965116497
    7      H      -4.2719781943     1.9982147771     0.9544342830
    8      H      -3.8634655828     1.7575887746    -0.8031148604
    9      H      -2.7352746441    -0.3235480035    -0.1084876414
 ----------------------------------------------------------------

    7    -154.8612655699      3.86E-05 Convergence criterion met
    7    -154.9360519746      5.62E-06 Convergence criterion met
 Total energy in the final basis set = -154.93605197

                    Orbital Energies (a.u.)
 --------------------------------------------------------------

 Alpha MOs
 -- Occupied --
-19.2436 -10.3548 -10.2508  -1.0927  -0.8717  -0.6992  -0.6081  -0.5671
 -0.5055  -0.4610  -0.4440  -0.4314  -0.3004

                    Cartesian Multipole Moments
 -----------------------------------------------------------------
    Charge (ESU x 10^10)
                 0.0000
    Dipole Moment (Debye)
         X       0.4315      Y       0.8995      Z      -1.4486
       Tot       1.7589
    Quadrupole Moments (Debye-Ang)
        XX     -24.9049     XY      -3.5448     YY     -18.7351
        XZ       3.1749     YZ       0.9193     ZZ     -20.7566

 Total job time:  13.71s(wall), 71.32s(cpu)
        *  Thank you very much for using Q-Chem.  Have a nice day.  *
