 Q-Chem 5.3 (devel), Q-Chem, Inc., Pleasanton, CA (2020)
 Q-Chem 5.3.0 for Intel X86 EM64T Linux

User input:
--------------------------------------------------------------
$rem
   JOBTYPE  sp
   EXCHANGE   omegaB97X-D
   BASIS   6-311+G(2df,2pd)
   UNRESTRICTED   False
   max_scf_cycles   250
   geom_opt_max_cycles   1500
   basis2 6-31G*
   scf_algorithm rca_diis
   SYM_IGNORE  TRUE
   print_input   true
   geom_opt_dmax   80
   pop_mulliken false
   XC_GRID 000075000302
$end

$molecule
0 1
C       -5.5726968233     0.5270450942     -0.0792186845
C       -4.4331313057     1.3537584541     0.0660217905
H       -5.8732498237     0.3324354352     -0.9556618245
H       -6.2382060765     0.5514155488     0.6161792812
H       -4.4823437132     -0.3184057911     0.2858558085
O       -3.3087034539     -0.0249977175     0.5852740949
H       -4.2723657739     1.9860522601     1.0063612422
H       -3.8436355755     1.7307982881     -0.8735424554
H       -2.6563998516     -0.2749643148     -0.0783790896
$end
--------------------------------------------------------------

             Standard Nuclear Orientation (Angstroms)
    I     Atom           X                Y                Z
 ----------------------------------------------------------------
    1      C      -5.5726968233     0.5270450942    -0.0792186845
    2      C      -4.4331313057     1.3537584541     0.0660217905
    3      H      -5.8732498237     0.3324354352    -0.9556618245
    4      H      -6.2382060765     0.5514155488     0.6161792812
    5      H      -4.4823437132    -0.3184057911     0.2858558085
    6      O      -3.3087034539    -0.0249977175     0.5852740949
    7      H      -4.2723657739     1.9860522601     1.0063612422
    8      H      -3.8436355755     1.7307982881    -0.8735424554
    9      H      -2.6563998516    -0.2749643148    -0.0783790896
 ----------------------------------------------------------------

    7    -154.8264045617      4.38E-05 Convergence criterion met
    7    -154.9038576312      6.94E-06 Convergence criterion met
 Total energy in the final basis set = -154.90385763

                    Orbital Energies (a.u.)
 --------------------------------------------------------------

 Alpha MOs
 -- Occupied --
-19.2427 -10.3676 -10.2273  -1.0881  -0.8762  -0.7022  -0.6116  -0.5709
 -0.5130  -0.4660  -0.4392  -0.4260  -0.3051

                    Cartesian Multipole Moments
 -----------------------------------------------------------------
    Charge (ESU x 10^10)
                 0.0000
    Dipole Moment (Debye)
         X       0.4142      Y       0.8962      Z      -1.4389
       Tot       1.7451
    Quadrupole Moments (Debye-Ang)
        XX     -23.9120     XY      -3.5780     YY     -19.1090
        XZ       3.2914     YZ       0.9220     ZZ     -20.7348

 Total job time:  15.77s(wall), 82.74s(cpu)
        *  Thank you very much for using Q-Chem.  Have a nice day.  *
