 Q-Chem 5.3 (devel), Q-Chem, Inc., Pleasanton, CA (2020)
 Q-Chem 5.3.0 for Intel X86 EM64T Linux

User input:
--------------------------------------------------------------
$rem
   JOBTYPE  sp
   EXCHANGE   omegaB97X-D
   BASIS   6-311+G(2df,2pd)
   UNRESTRICTED   False
   max_scf_cycles   250
   geom_opt_max_cycles   1500
   basis2 6-31G*
   scf_algorithm rca_diis
   SYM_IGNORE  TRUE
   print_input   true
   geom_opt_dmax   80
   pop_mulliken false
   XC_GRID 000075000302
$end

$molecule
0 1
C       -5.5319190109     0.4761179655     -0.0603525884
C       -4.4239595806     1.3538599935     0.0623849794
H       -5.9244703839     0.3829050033     -1.0668438680
H       -6.3113762688     0.6309770433     0.6767375525
H       -4.4243017185     -0.3608262733     0.3080928256
O       -3.2690917856     -0.0259774182     0.5934603013
H       -4.2839169347     1.9600588963     0.9469158173
H       -3.8949446307     1.7109242434     -0.8130483080
H       -2.6167520836     -0.2649021966     -0.0744565485
$end
--------------------------------------------------------------

             Standard Nuclear Orientation (Angstroms)
    I     Atom           X                Y                Z
 ----------------------------------------------------------------
    1      C      -5.5319190109     0.4761179655    -0.0603525884
    2      C      -4.4239595806     1.3538599935     0.0623849794
    3      H      -5.9244703839     0.3829050033    -1.0668438680
    4      H      -6.3113762688     0.6309770433     0.6767375525
    5      H      -4.4243017185    -0.3608262733     0.3080928256
    6      O      -3.2690917856    -0.0259774182     0.5934603013
    7      H      -4.2839169347     1.9600588963     0.9469158173
    8      H      -3.8949446307     1.7109242434    -0.8130483080
    9      H      -2.6167520836    -0.2649021966    -0.0744565485
 ----------------------------------------------------------------

    7    -154.8602414548      4.12E-05 Convergence criterion met
    7    -154.9352903988      5.53E-06 Convergence criterion met
 Total energy in the final basis set = -154.93529040

                    Orbital Energies (a.u.)
 --------------------------------------------------------------

 Alpha MOs
 -- Occupied --
-19.2462 -10.3555 -10.2532  -1.0899  -0.8730  -0.6960  -0.6139  -0.5682
 -0.5017  -0.4531  -0.4374  -0.4306  -0.3094

                    Cartesian Multipole Moments
 -----------------------------------------------------------------
    Charge (ESU x 10^10)
                -0.0000
    Dipole Moment (Debye)
         X       0.5302      Y       1.2167      Z      -1.4791
       Tot       1.9873
    Quadrupole Moments (Debye-Ang)
        XX     -25.0436     XY      -5.4785     YY     -18.7684
        XZ       3.5090     YZ       0.7474     ZZ     -20.9363

 Total job time:  14.56s(wall), 75.31s(cpu)
        *  Thank you very much for using Q-Chem.  Have a nice day.  *
