 Q-Chem 5.3 (devel), Q-Chem, Inc., Pleasanton, CA (2020)
 Q-Chem 5.3.0 for Intel X86 EM64T Linux

User input:
--------------------------------------------------------------
$rem
   JOBTYPE  sp
   EXCHANGE   omegaB97X-D
   BASIS   6-311+G(2df,2pd)
   UNRESTRICTED   False
   max_scf_cycles   250
   geom_opt_max_cycles   1500
   basis2 6-31G*
   scf_algorithm rca_diis
   SYM_IGNORE  TRUE
   print_input   true
   geom_opt_dmax   80
   pop_mulliken false
   XC_GRID 000075000302
$end

$molecule
0 1
C       -5.4852111433     0.5985087225     -0.0471918835
C       -4.3383372828     1.3065733268     0.1407436467
H       -5.7751141347     0.3586206491     -1.0592306983
H       -6.2425715143     0.6515412049     0.7199657505
H       -4.4476782907     -0.3867496148     0.2828177425
O       -3.2632433639     -0.1083684576     0.5639533641
H       -4.4903794983     2.0700697744     0.8891371954
H       -4.0112529635     1.7313702249     -0.7996768468
H       -2.6269442058     -0.3584285731     -0.1176281073
$end
--------------------------------------------------------------

             Standard Nuclear Orientation (Angstroms)
    I     Atom           X                Y                Z
 ----------------------------------------------------------------
    1      C      -5.4852111433     0.5985087225    -0.0471918835
    2      C      -4.3383372828     1.3065733268     0.1407436467
    3      H      -5.7751141347     0.3586206491    -1.0592306983
    4      H      -6.2425715143     0.6515412049     0.7199657505
    5      H      -4.4476782907    -0.3867496148     0.2828177425
    6      O      -3.2632433639    -0.1083684576     0.5639533641
    7      H      -4.4903794983     2.0700697744     0.8891371954
    8      H      -4.0112529635     1.7313702249    -0.7996768468
    9      H      -2.6269442058    -0.3584285731    -0.1176281073
 ----------------------------------------------------------------

    7    -154.8384578814      4.42E-05 Convergence criterion met
    7    -154.9143575715      5.07E-06 Convergence criterion met
 Total energy in the final basis set = -154.91435757

                    Orbital Energies (a.u.)
 --------------------------------------------------------------

 Alpha MOs
 -- Occupied --
-19.2596 -10.3399 -10.2443  -1.1002  -0.8874  -0.6805  -0.6219  -0.5763
 -0.5020  -0.4545  -0.4510  -0.4303  -0.3016

                    Cartesian Multipole Moments
 -----------------------------------------------------------------
    Charge (ESU x 10^10)
                 0.0000
    Dipole Moment (Debye)
         X       0.4813      Y       0.7361      Z      -1.4250
       Tot       1.6746
    Quadrupole Moments (Debye-Ang)
        XX     -24.9825     XY      -3.6334     YY     -19.1271
        XZ       3.1403     YZ       1.0214     ZZ     -20.8028

 Total job time:  18.13s(wall), 87.05s(cpu)
        *  Thank you very much for using Q-Chem.  Have a nice day.  *
