 Q-Chem 5.3 (devel), Q-Chem, Inc., Pleasanton, CA (2020)
 Q-Chem 5.3.0 for Intel X86 EM64T Linux

User input:
--------------------------------------------------------------
$rem
   JOBTYPE  sp
   EXCHANGE   omegaB97X-D
   BASIS   6-311+G(2df,2pd)
   UNRESTRICTED   False
   max_scf_cycles   250
   geom_opt_max_cycles   1500
   basis2 6-31G*
   scf_algorithm rca_diis
   SYM_IGNORE  TRUE
   print_input   true
   geom_opt_dmax   80
   pop_mulliken false
   XC_GRID 000075000302
$end

$molecule
0 1
C       -5.6497388189     0.5968942545     -0.0653656633
C       -4.4299151063     1.2673724140     0.0663479383
H       -6.0041564426     0.3685757218     -1.0623325011
H       -6.3939893214     0.6749345492     0.7143721744
H       -4.4675755592     -0.2945602093     0.2007234639
O       -3.2211265630     -0.0497759687     0.5358437069
H       -4.2244151910     1.8486637668     0.9517508644
H       -3.8973459113     1.5812217924     -0.8203246567
H       -2.3924694836     -0.1301890636     0.0518748366
$end
--------------------------------------------------------------

             Standard Nuclear Orientation (Angstroms)
    I     Atom           X                Y                Z
 ----------------------------------------------------------------
    1      C      -5.6497388189     0.5968942545    -0.0653656633
    2      C      -4.4299151063     1.2673724140     0.0663479383
    3      H      -6.0041564426     0.3685757218    -1.0623325011
    4      H      -6.3939893214     0.6749345492     0.7143721744
    5      H      -4.4675755592    -0.2945602093     0.2007234639
    6      O      -3.2211265630    -0.0497759687     0.5358437069
    7      H      -4.2244151910     1.8486637668     0.9517508644
    8      H      -3.8973459113     1.5812217924    -0.8203246567
    9      H      -2.3924694836    -0.1301890636     0.0518748366
 ----------------------------------------------------------------

    7    -154.8482413268      5.21E-05 Convergence criterion met
    7    -154.9267200416      9.89E-06 Convergence criterion met
 Total energy in the final basis set = -154.92672004

                    Orbital Energies (a.u.)
 --------------------------------------------------------------

 Alpha MOs
 -- Occupied --
-19.2310 -10.3517 -10.2706  -1.0726  -0.8851  -0.6960  -0.6150  -0.5762
 -0.5146  -0.4585  -0.4253  -0.4022  -0.3163

                    Cartesian Multipole Moments
 -----------------------------------------------------------------
    Charge (ESU x 10^10)
                -0.0000
    Dipole Moment (Debye)
         X       0.2926      Y       1.2219      Z      -1.3519
       Tot       1.8456
    Quadrupole Moments (Debye-Ang)
        XX     -21.3645     XY      -4.6657     YY     -19.9126
        XZ       3.3536     YZ       0.8977     ZZ     -20.9055

 Total job time:  14.65s(wall), 77.21s(cpu)
        *  Thank you very much for using Q-Chem.  Have a nice day.  *
