 Q-Chem 5.3 (devel), Q-Chem, Inc., Pleasanton, CA (2020)
 Q-Chem 5.3.0 for Intel X86 EM64T Linux

User input:
--------------------------------------------------------------
$rem
   JOBTYPE  sp
   EXCHANGE   omegaB97X-D
   BASIS   6-311+G(2df,2pd)
   UNRESTRICTED   False
   max_scf_cycles   250
   geom_opt_max_cycles   1500
   basis2 6-31G*
   scf_algorithm rca_diis
   SYM_IGNORE  TRUE
   print_input   true
   geom_opt_dmax   80
   pop_mulliken false
   XC_GRID 000075000302
$end

$molecule
0 1
C       -5.5404951503     0.5332434778     -0.0623580212
C       -4.4003152926     1.3517744915     0.0843763933
H       -5.8645288011     0.2442863761     -1.0540975657
H       -6.3110607658     0.6428507979     0.6880882830
H       -4.4517397532     -0.3066282271     0.2221829672
O       -3.3028955432     -0.0469951936     0.6265740045
H       -4.2278937594     1.9433495739     0.9719180110
H       -3.8914465435     1.7074686340     -0.8032575815
H       -2.6903567882     -0.2062126733     -0.1005363272
$end
--------------------------------------------------------------

             Standard Nuclear Orientation (Angstroms)
    I     Atom           X                Y                Z
 ----------------------------------------------------------------
    1      C      -5.5404951503     0.5332434778    -0.0623580212
    2      C      -4.4003152926     1.3517744915     0.0843763933
    3      H      -5.8645288011     0.2442863761    -1.0540975657
    4      H      -6.3110607658     0.6428507979     0.6880882830
    5      H      -4.4517397532    -0.3066282271     0.2221829672
    6      O      -3.3028955432    -0.0469951936     0.6265740045
    7      H      -4.2278937594     1.9433495739     0.9719180110
    8      H      -3.8914465435     1.7074686340    -0.8032575815
    9      H      -2.6903567882    -0.2062126733    -0.1005363272
 ----------------------------------------------------------------

    7    -154.8589350222      4.22E-05 Convergence criterion met
    7    -154.9342927602      7.57E-06 Convergence criterion met
 Total energy in the final basis set = -154.93429276

                    Orbital Energies (a.u.)
 --------------------------------------------------------------

 Alpha MOs
 -- Occupied --
-19.2446 -10.3554 -10.2542  -1.0922  -0.8761  -0.6984  -0.6058  -0.5741
 -0.5069  -0.4587  -0.4488  -0.4278  -0.3033

                    Cartesian Multipole Moments
 -----------------------------------------------------------------
    Charge (ESU x 10^10)
                 0.0000
    Dipole Moment (Debye)
         X       0.4498      Y       1.1330      Z      -1.5843
       Tot       1.9989
    Quadrupole Moments (Debye-Ang)
        XX     -24.7258     XY      -4.2959     YY     -19.1346
        XZ       3.8027     YZ       1.2130     ZZ     -20.8792

 Total job time:  17.02s(wall), 88.28s(cpu)
        *  Thank you very much for using Q-Chem.  Have a nice day.  *
