 Q-Chem 5.3 (devel), Q-Chem, Inc., Pleasanton, CA (2020)
 Q-Chem 5.3.0 for Intel X86 EM64T Linux

User input:
--------------------------------------------------------------
$rem
   JOBTYPE  sp
   EXCHANGE   omegaB97X-D
   BASIS   6-311+G(2df,2pd)
   UNRESTRICTED   False
   max_scf_cycles   250
   geom_opt_max_cycles   1500
   basis2 6-31G*
   scf_algorithm rca_diis
   SYM_IGNORE  TRUE
   print_input   true
   geom_opt_dmax   80
   pop_mulliken false
   XC_GRID 000075000302
$end

$molecule
0 1
C       -5.5530966629     0.5423477230     -0.0244398220
C       -4.4170147014     1.3674237722     0.1328399710
H       -5.7726795825     0.4550409459     -1.0827962050
H       -6.3903261701     0.4315738191     0.6483900807
H       -4.4651219204     -0.3057758199     0.3044867209
O       -3.2911616364     -0.0154233316     0.6107731182
H       -4.1161417341     2.0510466218     0.9144450917
H       -4.0038847002     1.5896340012     -0.8430085843
H       -2.6713052894     -0.2527304747     -0.0878002078
$end
--------------------------------------------------------------

             Standard Nuclear Orientation (Angstroms)
    I     Atom           X                Y                Z
 ----------------------------------------------------------------
    1      C      -5.5530966629     0.5423477230    -0.0244398220
    2      C      -4.4170147014     1.3674237722     0.1328399710
    3      H      -5.7726795825     0.4550409459    -1.0827962050
    4      H      -6.3903261701     0.4315738191     0.6483900807
    5      H      -4.4651219204    -0.3057758199     0.3044867209
    6      O      -3.2911616364    -0.0154233316     0.6107731182
    7      H      -4.1161417341     2.0510466218     0.9144450917
    8      H      -4.0038847002     1.5896340012    -0.8430085843
    9      H      -2.6713052894    -0.2527304747    -0.0878002078
 ----------------------------------------------------------------

    7    -154.8545830068      4.12E-05 Convergence criterion met
    7    -154.9300263855      4.16E-06 Convergence criterion met
 Total energy in the final basis set = -154.93002639

                    Orbital Energies (a.u.)
 --------------------------------------------------------------

 Alpha MOs
 -- Occupied --
-19.2442 -10.3557 -10.2554  -1.0912  -0.8773  -0.6969  -0.6118  -0.5731
 -0.5001  -0.4640  -0.4377  -0.4284  -0.3050

                    Cartesian Multipole Moments
 -----------------------------------------------------------------
    Charge (ESU x 10^10)
                -0.0000
    Dipole Moment (Debye)
         X       0.4599      Y       0.9732      Z      -1.4912
       Tot       1.8391
    Quadrupole Moments (Debye-Ang)
        XX     -24.7440     XY      -3.6806     YY     -19.1206
        XZ       3.5032     YZ       0.7711     ZZ     -20.8647

 Total job time:  14.87s(wall), 78.03s(cpu)
        *  Thank you very much for using Q-Chem.  Have a nice day.  *
