 Q-Chem 5.3 (devel), Q-Chem, Inc., Pleasanton, CA (2020)
 Q-Chem 5.3.0 for Intel X86 EM64T Linux

User input:
--------------------------------------------------------------
$rem
   JOBTYPE  sp
   EXCHANGE   omegaB97X-D
   BASIS   6-311+G(2df,2pd)
   UNRESTRICTED   False
   max_scf_cycles   250
   geom_opt_max_cycles   1500
   basis2 6-31G*
   scf_algorithm rca_diis
   SYM_IGNORE  TRUE
   print_input   true
   geom_opt_dmax   80
   pop_mulliken false
   XC_GRID 000075000302
$end

$molecule
0 1
C       -5.5455995647     0.5580815563     -0.0745659835
C       -4.4058220057     1.3863573875     0.0610642354
H       -5.8717384438     0.3113503949     -1.0774937312
H       -6.2848765840     0.5869842754     0.7154802464
H       -4.4880856776     -0.4276085134     0.2974965983
O       -3.3018128849     -0.0018149323     0.5979022622
H       -4.2531227510     1.9648374447     0.9617794726
H       -3.8655418529     1.7139798421     -0.8187327309
H       -2.6641326328     -0.2290301980     -0.0900402061
$end
--------------------------------------------------------------

             Standard Nuclear Orientation (Angstroms)
    I     Atom           X                Y                Z
 ----------------------------------------------------------------
    1      C      -5.5455995647     0.5580815563    -0.0745659835
    2      C      -4.4058220057     1.3863573875     0.0610642354
    3      H      -5.8717384438     0.3113503949    -1.0774937312
    4      H      -6.2848765840     0.5869842754     0.7154802464
    5      H      -4.4880856776    -0.4276085134     0.2974965983
    6      O      -3.3018128849    -0.0018149323     0.5979022622
    7      H      -4.2531227510     1.9648374447     0.9617794726
    8      H      -3.8655418529     1.7139798421    -0.8187327309
    9      H      -2.6641326328    -0.2290301980    -0.0900402061
 ----------------------------------------------------------------

    7    -154.8598179465      4.23E-05 Convergence criterion met
    7    -154.9340199457      7.36E-06 Convergence criterion met
 Total energy in the final basis set = -154.93401995

                    Orbital Energies (a.u.)
 --------------------------------------------------------------

 Alpha MOs
 -- Occupied --
-19.2466 -10.3516 -10.2565  -1.0854  -0.8677  -0.6952  -0.6000  -0.5668
 -0.5015  -0.4589  -0.4425  -0.4324  -0.3001

                    Cartesian Multipole Moments
 -----------------------------------------------------------------
    Charge (ESU x 10^10)
                -0.0000
    Dipole Moment (Debye)
         X       0.5252      Y       0.8496      Z      -1.4386
       Tot       1.7514
    Quadrupole Moments (Debye-Ang)
        XX     -25.4935     XY      -3.1375     YY     -19.1487
        XZ       3.1262     YZ       0.8689     ZZ     -20.8161

 Total job time:  18.28s(wall), 95.16s(cpu)
        *  Thank you very much for using Q-Chem.  Have a nice day.  *
