 Q-Chem 5.3 (devel), Q-Chem, Inc., Pleasanton, CA (2020)
 Q-Chem 5.3.0 for Intel X86 EM64T Linux

User input:
--------------------------------------------------------------
$rem
   JOBTYPE  sp
   EXCHANGE   omegaB97X-D
   BASIS   6-311+G(2df,2pd)
   UNRESTRICTED   False
   max_scf_cycles   250
   geom_opt_max_cycles   1500
   basis2 6-31G*
   scf_algorithm rca_diis
   SYM_IGNORE  TRUE
   print_input   true
   geom_opt_dmax   80
   pop_mulliken false
   XC_GRID 000075000302
$end

$molecule
0 1
C       -5.5572333847     0.5450027929     -0.0718262258
C       -4.4219050978     1.3706431182     0.0725606218
H       -5.8969370895     0.3117085698     -1.0725773564
H       -6.3187756546     0.5813822065     0.6958640507
H       -4.4849595851     -0.3003611403     0.3129860788
O       -3.3218751771     -0.0087009435     0.6301900014
H       -4.2800580168     1.9739714661     0.9573167990
H       -3.8670954538     1.7058159553     -0.7958505803
H       -2.5318929379     -0.3163247679     -0.1557732260
$end
--------------------------------------------------------------

             Standard Nuclear Orientation (Angstroms)
    I     Atom           X                Y                Z
 ----------------------------------------------------------------
    1      C      -5.5572333847     0.5450027929    -0.0718262258
    2      C      -4.4219050978     1.3706431182     0.0725606218
    3      H      -5.8969370895     0.3117085698    -1.0725773564
    4      H      -6.3187756546     0.5813822065     0.6958640507
    5      H      -4.4849595851    -0.3003611403     0.3129860788
    6      O      -3.3218751771    -0.0087009435     0.6301900014
    7      H      -4.2800580168     1.9739714661     0.9573167990
    8      H      -3.8670954538     1.7058159553    -0.7958505803
    9      H      -2.5318929379    -0.3163247679    -0.1557732260
 ----------------------------------------------------------------

    7    -154.8415823627      4.05E-05 Convergence criterion met
    7    -154.9143119277      8.95E-06 Convergence criterion met
 Total energy in the final basis set = -154.91431193

                    Orbital Energies (a.u.)
 --------------------------------------------------------------

 Alpha MOs
 -- Occupied --
-19.2582 -10.3519 -10.2551  -1.0610  -0.8675  -0.6966  -0.5908  -0.5676
 -0.4986  -0.4564  -0.4369  -0.4249  -0.3032

                    Cartesian Multipole Moments
 -----------------------------------------------------------------
    Charge (ESU x 10^10)
                -0.0000
    Dipole Moment (Debye)
         X       0.5564      Y       0.9079      Z      -1.5256
       Tot       1.8605
    Quadrupole Moments (Debye-Ang)
        XX     -25.0862     XY      -3.7047     YY     -19.2792
        XZ       3.4043     YZ       0.9726     ZZ     -21.0212

 Total job time:  18.02s(wall), 94.36s(cpu)
        *  Thank you very much for using Q-Chem.  Have a nice day.  *
