 Q-Chem 5.3 (devel), Q-Chem, Inc., Pleasanton, CA (2020)
 Q-Chem 5.3.0 for Intel X86 EM64T Linux

User input:
--------------------------------------------------------------
$rem
   JOBTYPE  sp
   EXCHANGE   omegaB97X-D
   BASIS   6-311+G(2df,2pd)
   UNRESTRICTED   False
   max_scf_cycles   250
   geom_opt_max_cycles   1500
   basis2 6-31G*
   scf_algorithm rca_diis
   SYM_IGNORE  TRUE
   print_input   true
   geom_opt_dmax   80
   pop_mulliken false
   XC_GRID 000075000302
$end

$molecule
0 1
C       -5.5761480471     0.5176548587     -0.0762625471
C       -4.4397704597     1.3478382923     0.0640893363
H       -5.8462247312     0.3097286469     -1.1022360113
H       -6.2679900770     0.5746752369     0.7520131392
H       -4.4822375273     -0.3145942614     0.2862805683
O       -3.3086892886     -0.0239968819     0.5808829558
H       -4.2426973127     1.9865911519     0.9152086637
H       -3.8618032064     1.7395397689     -0.7657653495
H       -2.6551717474     -0.2742995551     -0.0813205921
$end
--------------------------------------------------------------

             Standard Nuclear Orientation (Angstroms)
    I     Atom           X                Y                Z
 ----------------------------------------------------------------
    1      C      -5.5761480471     0.5176548587    -0.0762625471
    2      C      -4.4397704597     1.3478382923     0.0640893363
    3      H      -5.8462247312     0.3097286469    -1.1022360113
    4      H      -6.2679900770     0.5746752369     0.7520131392
    5      H      -4.4822375273    -0.3145942614     0.2862805683
    6      O      -3.3086892886    -0.0239968819     0.5808829558
    7      H      -4.2426973127     1.9865911519     0.9152086637
    8      H      -3.8618032064     1.7395397689    -0.7657653495
    9      H      -2.6551717474    -0.2742995551    -0.0813205921
 ----------------------------------------------------------------

    7    -154.8585402911      4.07E-05 Convergence criterion met
    7    -154.9341133352      4.10E-06 Convergence criterion met
 Total energy in the final basis set = -154.93411334

                    Orbital Energies (a.u.)
 --------------------------------------------------------------

 Alpha MOs
 -- Occupied --
-19.2423 -10.3526 -10.2567  -1.0886  -0.8746  -0.7013  -0.6107  -0.5667
 -0.5021  -0.4609  -0.4389  -0.4278  -0.3057

                    Cartesian Multipole Moments
 -----------------------------------------------------------------
    Charge (ESU x 10^10)
                 0.0000
    Dipole Moment (Debye)
         X       0.5343      Y       0.9765      Z      -1.4340
       Tot       1.8153
    Quadrupole Moments (Debye-Ang)
        XX     -25.3768     XY      -3.7814     YY     -19.0006
        XZ       3.1785     YZ       0.9359     ZZ     -20.7903

 Total job time:  17.55s(wall), 91.82s(cpu)
        *  Thank you very much for using Q-Chem.  Have a nice day.  *
