 Q-Chem 5.3 (devel), Q-Chem, Inc., Pleasanton, CA (2020)
 Q-Chem 5.3.0 for Intel X86 EM64T Linux

User input:
--------------------------------------------------------------
$rem
   JOBTYPE  sp
   EXCHANGE   omegaB97X-D
   BASIS   6-311+G(2df,2pd)
   UNRESTRICTED   False
   max_scf_cycles   250
   geom_opt_max_cycles   1500
   basis2 6-31G*
   scf_algorithm rca_diis
   SYM_IGNORE  TRUE
   print_input   true
   geom_opt_dmax   80
   pop_mulliken false
   XC_GRID 000075000302
$end

$molecule
0 1
C       -5.5176023668     0.5623853501     -0.0697398816
C       -4.3810926983     1.3829201796     0.0661584024
H       -5.9487314546     0.3231210341     -1.0347014647
H       -6.3245181502     0.5606625785     0.6523950929
H       -4.4522783632     -0.3013125876     0.2925477174
O       -3.2782179274     -0.0095811428     0.5923983469
H       -4.2732741592     1.9307050259     0.9901822367
H       -3.8753016719     1.6782504147     -0.8426689639
H       -2.6297156057     -0.2640135955     -0.0736813230
$end
--------------------------------------------------------------

             Standard Nuclear Orientation (Angstroms)
    I     Atom           X                Y                Z
 ----------------------------------------------------------------
    1      C      -5.5176023668     0.5623853501    -0.0697398816
    2      C      -4.3810926983     1.3829201796     0.0661584024
    3      H      -5.9487314546     0.3231210341    -1.0347014647
    4      H      -6.3245181502     0.5606625785     0.6523950929
    5      H      -4.4522783632    -0.3013125876     0.2925477174
    6      O      -3.2782179274    -0.0095811428     0.5923983469
    7      H      -4.2732741592     1.9307050259     0.9901822367
    8      H      -3.8753016719     1.6782504147    -0.8426689639
    9      H      -2.6297156057    -0.2640135955    -0.0736813230
 ----------------------------------------------------------------

    7    -154.8586838961      4.12E-05 Convergence criterion met
    7    -154.9341018875      8.59E-06 Convergence criterion met
 Total energy in the final basis set = -154.93410189

                    Orbital Energies (a.u.)
 --------------------------------------------------------------

 Alpha MOs
 -- Occupied --
-19.2428 -10.3556 -10.2521  -1.0891  -0.8751  -0.6952  -0.6123  -0.5739
 -0.5104  -0.4532  -0.4364  -0.4278  -0.3045

                    Cartesian Multipole Moments
 -----------------------------------------------------------------
    Charge (ESU x 10^10)
                -0.0000
    Dipole Moment (Debye)
         X       0.4423      Y       0.9326      Z      -1.4583
       Tot       1.7866
    Quadrupole Moments (Debye-Ang)
        XX     -24.2089     XY      -3.6954     YY     -19.1974
        XZ       3.3423     YZ       0.8597     ZZ     -20.8670

 Total job time:  19.11s(wall), 99.34s(cpu)
        *  Thank you very much for using Q-Chem.  Have a nice day.  *
