 Q-Chem 5.3 (devel), Q-Chem, Inc., Pleasanton, CA (2020)
 Q-Chem 5.3.0 for Intel X86 EM64T Linux

User input:
--------------------------------------------------------------
$rem
   JOBTYPE  sp
   EXCHANGE   omegaB97X-D
   BASIS   6-311+G(2df,2pd)
   UNRESTRICTED   False
   max_scf_cycles   250
   geom_opt_max_cycles   1500
   basis2 6-31G*
   scf_algorithm rca_diis
   SYM_IGNORE  TRUE
   print_input   true
   geom_opt_dmax   80
   pop_mulliken false
   XC_GRID 000075000302
$end

$molecule
0 1
C       -5.5532726921     0.5431691457     -0.0293254544
C       -4.3976165044     1.3553164493     0.0373428893
H       -5.8497943305     0.3203941672     -1.0470819574
H       -6.3453299693     0.5628736297     0.7063091712
H       -4.4637547897     -0.3074086678     0.2882584246
O       -3.2912997881     -0.0230586286     0.5947937034
H       -4.2811350590     1.9426251224     0.9370380508
H       -3.8299709491     1.7206430841     -0.8098840366
H       -2.6685583150     -0.2514170450     -0.1045606276
$end
--------------------------------------------------------------

             Standard Nuclear Orientation (Angstroms)
    I     Atom           X                Y                Z
 ----------------------------------------------------------------
    1      C      -5.5532726921     0.5431691457    -0.0293254544
    2      C      -4.3976165044     1.3553164493     0.0373428893
    3      H      -5.8497943305     0.3203941672    -1.0470819574
    4      H      -6.3453299693     0.5628736297     0.7063091712
    5      H      -4.4637547897    -0.3074086678     0.2882584246
    6      O      -3.2912997881    -0.0230586286     0.5947937034
    7      H      -4.2811350590     1.9426251224     0.9370380508
    8      H      -3.8299709491     1.7206430841    -0.8098840366
    9      H      -2.6685583150    -0.2514170450    -0.1045606276
 ----------------------------------------------------------------

    7    -154.8592498014      4.21E-05 Convergence criterion met
    7    -154.9345340370      8.07E-06 Convergence criterion met
 Total energy in the final basis set = -154.93453404

                    Orbital Energies (a.u.)
 --------------------------------------------------------------

 Alpha MOs
 -- Occupied --
-19.2444 -10.3549 -10.2545  -1.0909  -0.8743  -0.6981  -0.6099  -0.5697
 -0.5069  -0.4649  -0.4350  -0.4287  -0.3045

                    Cartesian Multipole Moments
 -----------------------------------------------------------------
    Charge (ESU x 10^10)
                 0.0000
    Dipole Moment (Debye)
         X       0.4788      Y       0.9878      Z      -1.5186
       Tot       1.8738
    Quadrupole Moments (Debye-Ang)
        XX     -24.7713     XY      -3.8027     YY     -19.1836
        XZ       3.2501     YZ       0.7415     ZZ     -20.8719

 Total job time:  17.76s(wall), 93.17s(cpu)
        *  Thank you very much for using Q-Chem.  Have a nice day.  *
