 Q-Chem 5.3 (devel), Q-Chem, Inc., Pleasanton, CA (2020)
 Q-Chem 5.3.0 for Intel X86 EM64T Linux

User input:
--------------------------------------------------------------
$rem
   JOBTYPE  sp
   EXCHANGE   omegaB97X-D
   BASIS   6-311+G(2df,2pd)
   UNRESTRICTED   False
   max_scf_cycles   250
   geom_opt_max_cycles   1500
   basis2 6-31G*
   scf_algorithm rca_diis
   SYM_IGNORE  TRUE
   print_input   true
   geom_opt_dmax   80
   pop_mulliken false
   XC_GRID 000075000302
$end

$molecule
0 1
C       -5.5459913399     0.5399390194     -0.0727273173
C       -4.4103806313     1.3664969448     0.0651493997
H       -5.8979436617     0.3154152234     -1.0713515943
H       -6.2976793455     0.5671285746     0.7047627870
H       -4.4668802586     -0.3090502593     0.2894372849
O       -3.2928934464     -0.0188279386     0.5868749696
H       -4.2587769013     1.9618937208     0.9544735056
H       -3.8681805958     1.7114826198     -0.8063863959
H       -2.6420062168     -0.2713406478     -0.0773424760
$end
--------------------------------------------------------------

             Standard Nuclear Orientation (Angstroms)
    I     Atom           X                Y                Z
 ----------------------------------------------------------------
    1      C      -5.5459913399     0.5399390194    -0.0727273173
    2      C      -4.4103806313     1.3664969448     0.0651493997
    3      H      -5.8979436617     0.3154152234    -1.0713515943
    4      H      -6.2976793455     0.5671285746     0.7047627870
    5      H      -4.4668802586    -0.3090502593     0.2894372849
    6      O      -3.2928934464    -0.0188279386     0.5868749696
    7      H      -4.2587769013     1.9618937208     0.9544735056
    8      H      -3.8681805958     1.7114826198    -0.8063863959
    9      H      -2.6420062168    -0.2713406478    -0.0773424760
 ----------------------------------------------------------------

    7    -154.8620860169      4.09E-05 Convergence criterion met
    7    -154.9374395929      8.34E-06 Convergence criterion met
 Total energy in the final basis set = -154.93743959

                    Orbital Energies (a.u.)
 --------------------------------------------------------------

 Alpha MOs
 -- Occupied --
-19.2421 -10.3540 -10.2543  -1.0882  -0.8743  -0.6974  -0.6109  -0.5693
 -0.5062  -0.4574  -0.4397  -0.4277  -0.3050

                    Cartesian Multipole Moments
 -----------------------------------------------------------------
    Charge (ESU x 10^10)
                 0.0000
    Dipole Moment (Debye)
         X       0.4816      Y       0.9603      Z      -1.4484
       Tot       1.8033
    Quadrupole Moments (Debye-Ang)
        XX     -24.7336     XY      -3.7612     YY     -19.0780
        XZ       3.2637     YZ       0.9043     ZZ     -20.8111

 Total job time:  18.94s(wall), 98.99s(cpu)
        *  Thank you very much for using Q-Chem.  Have a nice day.  *
