 Q-Chem 5.3 (devel), Q-Chem, Inc., Pleasanton, CA (2020)
 Q-Chem 5.3.0 for Intel X86 EM64T Linux

User input:
--------------------------------------------------------------
$rem
   JOBTYPE  sp
   EXCHANGE   omegaB97X-D
   BASIS   6-311+G(2df,2pd)
   UNRESTRICTED   False
   max_scf_cycles   250
   geom_opt_max_cycles   1500
   basis2 6-31G*
   scf_algorithm rca_diis
   SYM_IGNORE  TRUE
   print_input   true
   geom_opt_dmax   80
   pop_mulliken false
   XC_GRID 000075000302
$end

$molecule
0 1
C       -5.4995674531     0.3583229865     -0.0370086906
C       -4.4594482179     1.3410020654     0.0546523615
H       -5.9629844840     0.5168383658     -1.0088662329
H       -6.3066308829     0.7446080481     0.5822163945
H       -4.3433117229     -0.4642071411     0.3429818914
O       -3.2270742799     -0.0550860630     0.6065390244
H       -4.3470896400     1.9682888793     0.9296284662
H       -3.9606050546     1.7245056609     -0.8286065807
H       -2.5740206618     -0.2711355448     -0.0686464705
$end
--------------------------------------------------------------

             Standard Nuclear Orientation (Angstroms)
    I     Atom           X                Y                Z
 ----------------------------------------------------------------
    1      C      -5.4995674531     0.3583229865    -0.0370086906
    2      C      -4.4594482179     1.3410020654     0.0546523615
    3      H      -5.9629844840     0.5168383658    -1.0088662329
    4      H      -6.3066308829     0.7446080481     0.5822163945
    5      H      -4.3433117229    -0.4642071411     0.3429818914
    6      O      -3.2270742799    -0.0550860630     0.6065390244
    7      H      -4.3470896400     1.9682888793     0.9296284662
    8      H      -3.9606050546     1.7245056609    -0.8286065807
    9      H      -2.5740206618    -0.2711355448    -0.0686464705
 ----------------------------------------------------------------

    7    -154.8403228943      4.29E-05 Convergence criterion met
    9    -154.9156299692      4.34E-06 Convergence criterion met
 Total energy in the final basis set = -154.91562997

                    Orbital Energies (a.u.)
 --------------------------------------------------------------

 Alpha MOs
 -- Occupied --
-19.2536 -10.3611 -10.2514  -1.0918  -0.8753  -0.6976  -0.6191  -0.5657
 -0.4962  -0.4520  -0.4295  -0.4191  -0.3217

                    Cartesian Multipole Moments
 -----------------------------------------------------------------
    Charge (ESU x 10^10)
                 0.0000
    Dipole Moment (Debye)
         X       0.7087      Y       1.6878      Z      -1.5152
       Tot       2.3763
    Quadrupole Moments (Debye-Ang)
        XX     -26.6761     XY      -8.5831     YY     -18.0217
        XZ       3.8812     YZ       0.4407     ZZ     -21.4265

 Total job time:  18.17s(wall), 97.47s(cpu)
        *  Thank you very much for using Q-Chem.  Have a nice day.  *
