 Q-Chem 5.3 (devel), Q-Chem, Inc., Pleasanton, CA (2020)
 Q-Chem 5.3.0 for Intel X86 EM64T Linux

User input:
--------------------------------------------------------------
$rem
   JOBTYPE  sp
   EXCHANGE   omegaB97X-D
   BASIS   6-311+G(2df,2pd)
   UNRESTRICTED   False
   max_scf_cycles   250
   geom_opt_max_cycles   1500
   basis2 6-31G*
   scf_algorithm rca_diis
   SYM_IGNORE  TRUE
   print_input   true
   geom_opt_dmax   80
   pop_mulliken false
   XC_GRID 000075000302
$end

$molecule
0 1
C       -5.5414062703     0.5360464487     -0.0951072444
C       -4.4063835076     1.3623560746     0.0387775385
H       -5.8794076659     0.3134059491     -1.0560164960
H       -6.3245060195     0.5699428735     0.7122696696
H       -4.4643606445     -0.3102011029     0.2786368269
O       -3.2912226375     -0.0183792064     0.5777817557
H       -4.2495017134     1.9999218288     0.9855481836
H       -3.8859653955     1.6876525781     -0.7869059888
H       -2.6379785432     -0.2776081864     -0.0820940819
$end
--------------------------------------------------------------

             Standard Nuclear Orientation (Angstroms)
    I     Atom           X                Y                Z
 ----------------------------------------------------------------
    1      C      -5.5414062703     0.5360464487    -0.0951072444
    2      C      -4.4063835076     1.3623560746     0.0387775385
    3      H      -5.8794076659     0.3134059491    -1.0560164960
    4      H      -6.3245060195     0.5699428735     0.7122696696
    5      H      -4.4643606445    -0.3102011029     0.2786368269
    6      O      -3.2912226375    -0.0183792064     0.5777817557
    7      H      -4.2495017134     1.9999218288     0.9855481836
    8      H      -3.8859653955     1.6876525781    -0.7869059888
    9      H      -2.6379785432    -0.2776081864    -0.0820940819
 ----------------------------------------------------------------

    7    -154.8546922091      4.16E-05 Convergence criterion met
    7    -154.9302586460      8.06E-06 Convergence criterion met
 Total energy in the final basis set = -154.93025865

                    Orbital Energies (a.u.)
 --------------------------------------------------------------

 Alpha MOs
 -- Occupied --
-19.2422 -10.3551 -10.2546  -1.0882  -0.8747  -0.6979  -0.6138  -0.5630
 -0.5088  -0.4568  -0.4374  -0.4271  -0.3052

                    Cartesian Multipole Moments
 -----------------------------------------------------------------
    Charge (ESU x 10^10)
                 0.0000
    Dipole Moment (Debye)
         X       0.4963      Y       0.9324      Z      -1.4961
       Tot       1.8314
    Quadrupole Moments (Debye-Ang)
        XX     -24.8603     XY      -3.6468     YY     -19.1202
        XZ       3.4966     YZ       0.8613     ZZ     -20.7857

 Total job time:  14.42s(wall), 76.48s(cpu)
        *  Thank you very much for using Q-Chem.  Have a nice day.  *
