 Q-Chem 5.3 (devel), Q-Chem, Inc., Pleasanton, CA (2020)
 Q-Chem 5.3.0 for Intel X86 EM64T Linux

User input:
--------------------------------------------------------------
$rem
   JOBTYPE  sp
   EXCHANGE   omegaB97X-D
   BASIS   6-311+G(2df,2pd)
   UNRESTRICTED   False
   max_scf_cycles   250
   geom_opt_max_cycles   1500
   basis2 6-31G*
   scf_algorithm rca_diis
   SYM_IGNORE  TRUE
   print_input   true
   geom_opt_dmax   80
   pop_mulliken false
   XC_GRID 000075000302
$end

$molecule
0 1
C       -5.5484965827     0.5450552340     -0.0567072507
C       -4.4058763902     1.3636898521     0.0619730035
H       -5.9062833707     0.3199725604     -1.0536335060
H       -6.2995242218     0.5914897201     0.7201485282
H       -4.4850270374     -0.3552613893     0.2386123938
O       -3.3463144717     -0.0720372135     0.5496467938
H       -4.2367400792     1.9647381604     0.9445711077
H       -3.8814549141     1.7046186811     -0.8223731132
H       -2.5710153295     -0.1991283482     -0.0093477938
$end
--------------------------------------------------------------

             Standard Nuclear Orientation (Angstroms)
    I     Atom           X                Y                Z
 ----------------------------------------------------------------
    1      C      -5.5484965827     0.5450552340    -0.0567072507
    2      C      -4.4058763902     1.3636898521     0.0619730035
    3      H      -5.9062833707     0.3199725604    -1.0536335060
    4      H      -6.2995242218     0.5914897201     0.7201485282
    5      H      -4.4850270374    -0.3552613893     0.2386123938
    6      O      -3.3463144717    -0.0720372135     0.5496467938
    7      H      -4.2367400792     1.9647381604     0.9445711077
    8      H      -3.8814549141     1.7046186811    -0.8223731132
    9      H      -2.5710153295    -0.1991283482    -0.0093477938
 ----------------------------------------------------------------

    7    -154.8599583039      4.06E-05 Convergence criterion met
    7    -154.9357420688      4.74E-06 Convergence criterion met
 Total energy in the final basis set = -154.93574207

                    Orbital Energies (a.u.)
 --------------------------------------------------------------

 Alpha MOs
 -- Occupied --
-19.2456 -10.3518 -10.2498  -1.0924  -0.8715  -0.6961  -0.6226  -0.5693
 -0.4991  -0.4516  -0.4375  -0.4335  -0.3040

                    Cartesian Multipole Moments
 -----------------------------------------------------------------
    Charge (ESU x 10^10)
                 0.0000
    Dipole Moment (Debye)
         X       0.8607      Y       1.0973      Z      -1.3063
       Tot       1.9108
    Quadrupole Moments (Debye-Ang)
        XX     -27.2504     XY      -3.9575     YY     -19.2315
        XZ       3.1024     YZ       0.8903     ZZ     -20.8831

 Total job time:  14.61s(wall), 76.83s(cpu)
        *  Thank you very much for using Q-Chem.  Have a nice day.  *
