 Q-Chem 5.3 (devel), Q-Chem, Inc., Pleasanton, CA (2020)
 Q-Chem 5.3.0 for Intel X86 EM64T Linux

User input:
--------------------------------------------------------------
$rem
   JOBTYPE  sp
   EXCHANGE   omegaB97X-D
   BASIS   6-311+G(2df,2pd)
   UNRESTRICTED   False
   max_scf_cycles   250
   geom_opt_max_cycles   1500
   basis2 6-31G*
   scf_algorithm rca_diis
   SYM_IGNORE  TRUE
   print_input   true
   geom_opt_dmax   80
   pop_mulliken false
   XC_GRID 000075000302
$end

$molecule
0 1
C       -5.5429198866     0.5365118351     -0.1478287119
C       -4.4019513690     1.3560198692     -0.0387368150
H       -6.0812470731     0.1349684124     -0.9927404596
H       -6.1304168785     0.7839891105     0.7298919783
H       -4.4693657808     -0.2997722035     0.2673787636
O       -3.2976999377     0.0015053961     0.5490847714
H       -4.4626013025     1.7669036997     0.9589029840
H       -3.6934896998     1.8494591440     -0.6925908535
H       -2.6010404691     -0.2664480065     -0.0604714939
$end
--------------------------------------------------------------

             Standard Nuclear Orientation (Angstroms)
    I     Atom           X                Y                Z
 ----------------------------------------------------------------
    1      C      -5.5429198866     0.5365118351    -0.1478287119
    2      C      -4.4019513690     1.3560198692    -0.0387368150
    3      H      -6.0812470731     0.1349684124    -0.9927404596
    4      H      -6.1304168785     0.7839891105     0.7298919783
    5      H      -4.4693657808    -0.2997722035     0.2673787636
    6      O      -3.2976999377     0.0015053961     0.5490847714
    7      H      -4.4626013025     1.7669036997     0.9589029840
    8      H      -3.6934896998     1.8494591440    -0.6925908535
    9      H      -2.6010404691    -0.2664480065    -0.0604714939
 ----------------------------------------------------------------

    7    -154.8438082523      4.22E-05 Convergence criterion met
    7    -154.9200233254      4.20E-06 Convergence criterion met
 Total energy in the final basis set = -154.92002333

                    Orbital Energies (a.u.)
 --------------------------------------------------------------

 Alpha MOs
 -- Occupied --
-19.2414 -10.3537 -10.2569  -1.0890  -0.8805  -0.6961  -0.6138  -0.5726
 -0.5145  -0.4454  -0.4328  -0.4242  -0.3077

                    Cartesian Multipole Moments
 -----------------------------------------------------------------
    Charge (ESU x 10^10)
                -0.0000
    Dipole Moment (Debye)
         X       0.5590      Y       0.8221      Z      -1.3414
       Tot       1.6696
    Quadrupole Moments (Debye-Ang)
        XX     -24.9538     XY      -3.1229     YY     -19.1070
        XZ       2.8586     YZ       1.0039     ZZ     -21.1361

 Total job time:  13.18s(wall), 69.38s(cpu)
        *  Thank you very much for using Q-Chem.  Have a nice day.  *
