 Q-Chem 5.3 (devel), Q-Chem, Inc., Pleasanton, CA (2020)
 Q-Chem 5.3.0 for Intel X86 EM64T Linux

User input:
--------------------------------------------------------------
$rem
   JOBTYPE  sp
   EXCHANGE   omegaB97X-D
   BASIS   6-311+G(2df,2pd)
   UNRESTRICTED   False
   max_scf_cycles   250
   geom_opt_max_cycles   1500
   basis2 6-31G*
   scf_algorithm rca_diis
   SYM_IGNORE  TRUE
   print_input   true
   geom_opt_dmax   80
   pop_mulliken false
   XC_GRID 000075000302
$end

$molecule
0 1
C       -5.5162164591     0.4141071742     -0.0481768884
C       -4.4413147474     1.3455572170     0.0586854623
H       -5.9444061847     0.4516738058     -1.0458432410
H       -6.3126163706     0.6916290438     0.6360353353
H       -4.3827514747     -0.4137469295     0.3261334233
O       -3.2469914445     -0.0391354049     0.6001384976
H       -4.3150393879     1.9628170564     0.9382505145
H       -3.9274405204     1.7160140148     -0.8208571763
H       -2.5939558081     -0.2657787205     -0.0714757641
$end
--------------------------------------------------------------

             Standard Nuclear Orientation (Angstroms)
    I     Atom           X                Y                Z
 ----------------------------------------------------------------
    1      C      -5.5162164591     0.4141071742    -0.0481768884
    2      C      -4.4413147474     1.3455572170     0.0586854623
    3      H      -5.9444061847     0.4516738058    -1.0458432410
    4      H      -6.3126163706     0.6916290438     0.6360353353
    5      H      -4.3827514747    -0.4137469295     0.3261334233
    6      O      -3.2469914445    -0.0391354049     0.6001384976
    7      H      -4.3150393879     1.9628170564     0.9382505145
    8      H      -3.9274405204     1.7160140148    -0.8208571763
    9      H      -2.5939558081    -0.2657787205    -0.0714757641
 ----------------------------------------------------------------

    7    -154.8531382813      4.18E-05 Convergence criterion met
    9    -154.9281332487      3.54E-06 Convergence criterion met
 Total energy in the final basis set = -154.92813325

                    Orbital Energies (a.u.)
 --------------------------------------------------------------

 Alpha MOs
 -- Occupied --
-19.2500 -10.3577 -10.2522  -1.0908  -0.8734  -0.6960  -0.6164  -0.5669
 -0.4980  -0.4505  -0.4328  -0.4297  -0.3152

                    Cartesian Multipole Moments
 -----------------------------------------------------------------
    Charge (ESU x 10^10)
                 0.0000
    Dipole Moment (Debye)
         X       0.6141      Y       1.4662      Z      -1.5004
       Tot       2.1859
    Quadrupole Moments (Debye-Ang)
        XX     -25.7872     XY      -7.1244     YY     -18.4013
        XZ       3.7092     YZ       0.5916     ZZ     -21.1446

 Total job time:  17.81s(wall), 95.72s(cpu)
        *  Thank you very much for using Q-Chem.  Have a nice day.  *
