 Q-Chem 5.3 (devel), Q-Chem, Inc., Pleasanton, CA (2020)
 Q-Chem 5.3.0 for Intel X86 EM64T Linux

User input:
--------------------------------------------------------------
$rem
   JOBTYPE  sp
   EXCHANGE   omegaB97X-D
   BASIS   6-311+G(2df,2pd)
   UNRESTRICTED   False
   max_scf_cycles   250
   geom_opt_max_cycles   1500
   basis2 6-31G*
   scf_algorithm rca_diis
   SYM_IGNORE  TRUE
   print_input   true
   geom_opt_dmax   80
   pop_mulliken false
   XC_GRID 000075000302
$end

$molecule
0 1
C       -5.5492451440     0.5442817602     -0.0756338141
C       -4.4051984156     1.3750292729     0.0610342186
H       -5.8864257649     0.3279098833     -1.0390816291
H       -6.2728471235     0.5733292337     0.6761206561
H       -4.4669888835     -0.3057054650     0.2886088986
O       -3.2934069546     -0.0155370216     0.5856398977
H       -4.2631922653     1.9395798466     0.9084542016
H       -3.9007171287     1.6934221644     -0.7537075755
H       -2.6427107173     -0.2691724174     -0.0785446906
$end
--------------------------------------------------------------

             Standard Nuclear Orientation (Angstroms)
    I     Atom           X                Y                Z
 ----------------------------------------------------------------
    1      C      -5.5492451440     0.5442817602    -0.0756338141
    2      C      -4.4051984156     1.3750292729     0.0610342186
    3      H      -5.8864257649     0.3279098833    -1.0390816291
    4      H      -6.2728471235     0.5733292337     0.6761206561
    5      H      -4.4669888835    -0.3057054650     0.2886088986
    6      O      -3.2934069546    -0.0155370216     0.5856398977
    7      H      -4.2631922653     1.9395798466     0.9084542016
    8      H      -3.9007171287     1.6934221644    -0.7537075755
    9      H      -2.6427107173    -0.2691724174    -0.0785446906
 ----------------------------------------------------------------

    7    -154.8525528491      4.03E-05 Convergence criterion met
    7    -154.9293957773      8.59E-06 Convergence criterion met
 Total energy in the final basis set = -154.92939578

                    Orbital Energies (a.u.)
 --------------------------------------------------------------

 Alpha MOs
 -- Occupied --
-19.2424 -10.3413 -10.2458  -1.0884  -0.8784  -0.7127  -0.6139  -0.5799
 -0.5077  -0.4638  -0.4444  -0.4290  -0.3040

                    Cartesian Multipole Moments
 -----------------------------------------------------------------
    Charge (ESU x 10^10)
                 0.0000
    Dipole Moment (Debye)
         X       0.5088      Y       0.9882      Z      -1.4607
       Tot       1.8355
    Quadrupole Moments (Debye-Ang)
        XX     -24.8637     XY      -3.8840     YY     -18.8289
        XZ       3.3431     YZ       0.8559     ZZ     -20.7796

 Total job time:  19.20s(wall), 100.56s(cpu)
        *  Thank you very much for using Q-Chem.  Have a nice day.  *
