 Q-Chem 5.3 (devel), Q-Chem, Inc., Pleasanton, CA (2020)
 Q-Chem 5.3.0 for Intel X86 EM64T Linux

User input:
--------------------------------------------------------------
$rem
   JOBTYPE  sp
   EXCHANGE   omegaB97X-D
   BASIS   6-311+G(2df,2pd)
   UNRESTRICTED   False
   max_scf_cycles   250
   geom_opt_max_cycles   1500
   basis2 6-31G*
   scf_algorithm rca_diis
   SYM_IGNORE  TRUE
   print_input   true
   geom_opt_dmax   80
   pop_mulliken false
   XC_GRID 000075000302
$end

$molecule
0 1
C       -5.5463086191     0.5479655282     -0.0406794534
C       -4.3997056711     1.3626858073     0.0561242539
H       -5.9146529779     0.3243779272     -1.0345963201
H       -6.2918299810     0.6088633768     0.7401096656
H       -4.4977918874     -0.3976047011     0.1775470597
O       -3.3942540725     -0.1230055218     0.5017113846
H       -4.2110628477     1.9664994435     0.9331281549
H       -3.8992407822     1.7051683996     -0.8418217246
H       -2.5258855584     -0.1318130027     0.0813671426
$end
--------------------------------------------------------------

             Standard Nuclear Orientation (Angstroms)
    I     Atom           X                Y                Z
 ----------------------------------------------------------------
    1      C      -5.5463086191     0.5479655282    -0.0406794534
    2      C      -4.3997056711     1.3626858073     0.0561242539
    3      H      -5.9146529779     0.3243779272    -1.0345963201
    4      H      -6.2918299810     0.6088633768     0.7401096656
    5      H      -4.4977918874    -0.3976047011     0.1775470597
    6      O      -3.3942540725    -0.1230055218     0.5017113846
    7      H      -4.2110628477     1.9664994435     0.9331281549
    8      H      -3.8992407822     1.7051683996    -0.8418217246
    9      H      -2.5258855584    -0.1318130027     0.0813671426
 ----------------------------------------------------------------

    7    -154.8537572052      4.30E-05 Convergence criterion met
    7    -154.9302777025      5.17E-06 Convergence criterion met
 Total energy in the final basis set = -154.93027770

                    Orbital Energies (a.u.)
 --------------------------------------------------------------

 Alpha MOs
 -- Occupied --
-19.2477 -10.3507 -10.2461  -1.0959  -0.8694  -0.6965  -0.6329  -0.5689
 -0.4948  -0.4466  -0.4437  -0.4273  -0.3027

                    Cartesian Multipole Moments
 -----------------------------------------------------------------
    Charge (ESU x 10^10)
                 0.0000
    Dipole Moment (Debye)
         X       1.1582      Y       1.2544      Z      -1.1058
       Tot       2.0342
    Quadrupole Moments (Debye-Ang)
        XX     -29.3123     XY      -4.2478     YY     -19.2911
        XZ       2.8367     YZ       0.8878     ZZ     -20.8861

 Total job time:  16.09s(wall), 83.22s(cpu)
        *  Thank you very much for using Q-Chem.  Have a nice day.  *
