 Q-Chem 5.3 (devel), Q-Chem, Inc., Pleasanton, CA (2020)
 Q-Chem 5.3.0 for Intel X86 EM64T Linux

User input:
--------------------------------------------------------------
$rem
   JOBTYPE  sp
   EXCHANGE   omegaB97X-D
   BASIS   6-311+G(2df,2pd)
   UNRESTRICTED   False
   max_scf_cycles   250
   geom_opt_max_cycles   1500
   basis2 6-31G*
   scf_algorithm rca_diis
   SYM_IGNORE  TRUE
   print_input   true
   geom_opt_dmax   80
   pop_mulliken false
   XC_GRID 000075000302
$end

$molecule
0 1
C       -5.5515883720     0.5424603406     -0.0722871526
C       -4.4161171348     1.3685590744     0.0688712674
H       -5.8973668171     0.3135200142     -1.0720137723
H       -6.3082600677     0.5742802135     0.7002910995
H       -4.4758766212     -0.3047303409     0.3013048088
O       -3.3073092794     -0.0138037761     0.6087166802
H       -4.2694476302     1.9679579915     0.9559212438
H       -3.8675628769     1.7086085034     -0.8011207248
H       -2.5872035980     -0.2937147635     -0.1167932867
$end
--------------------------------------------------------------

             Standard Nuclear Orientation (Angstroms)
    I     Atom           X                Y                Z
 ----------------------------------------------------------------
    1      C      -5.5515883720     0.5424603406    -0.0722871526
    2      C      -4.4161171348     1.3685590744     0.0688712674
    3      H      -5.8973668171     0.3135200142    -1.0720137723
    4      H      -6.3082600677     0.5742802135     0.7002910995
    5      H      -4.4758766212    -0.3047303409     0.3013048088
    6      O      -3.3073092794    -0.0138037761     0.6087166802
    7      H      -4.2694476302     1.9679579915     0.9559212438
    8      H      -3.8675628769     1.7086085034    -0.8011207248
    9      H      -2.5872035980    -0.2937147635    -0.1167932867
 ----------------------------------------------------------------

    7    -154.8564310372      4.04E-05 Convergence criterion met
    7    -154.9303689310      7.91E-06 Convergence criterion met
 Total energy in the final basis set = -154.93036893

                    Orbital Energies (a.u.)
 --------------------------------------------------------------

 Alpha MOs
 -- Occupied --
-19.2511 -10.3528 -10.2545  -1.0722  -0.8705  -0.6969  -0.6002  -0.5684
 -0.5026  -0.4568  -0.4384  -0.4261  -0.3040

                    Cartesian Multipole Moments
 -----------------------------------------------------------------
    Charge (ESU x 10^10)
                 0.0000
    Dipole Moment (Debye)
         X       0.5309      Y       0.9292      Z      -1.4894
       Tot       1.8340
    Quadrupole Moments (Debye-Ang)
        XX     -25.0068     XY      -3.7135     YY     -19.1894
        XZ       3.3399     YZ       0.9393     ZZ     -20.9248

 Total job time:  18.53s(wall), 97.11s(cpu)
        *  Thank you very much for using Q-Chem.  Have a nice day.  *
