 Q-Chem 5.3 (devel), Q-Chem, Inc., Pleasanton, CA (2020)
 Q-Chem 5.3.0 for Intel X86 EM64T Linux

User input:
--------------------------------------------------------------
$rem
   JOBTYPE  sp
   EXCHANGE   omegaB97X-D
   BASIS   6-311+G(2df,2pd)
   UNRESTRICTED   False
   max_scf_cycles   250
   geom_opt_max_cycles   1500
   basis2 6-31G*
   scf_algorithm rca_diis
   SYM_IGNORE  TRUE
   print_input   true
   geom_opt_dmax   80
   pop_mulliken false
   XC_GRID 000075000302
$end

$molecule
0 1
C       -5.5330538711     0.5398744983     -0.1600444286
C       -4.4402992001     1.3787449229     0.1202224648
H       -5.9874178877     0.3080094033     -1.1127393474
H       -6.1934328300     0.5774416896     0.6975586841
H       -4.4763340729     -0.3009890431     0.2902976910
O       -3.2982450358     -0.0023570343     0.5674578619
H       -4.2132005828     1.9841687922     0.9868953824
H       -3.9427397072     1.6742760620     -0.7940268896
H       -2.5960092097     -0.2960320339     -0.0227312553
$end
--------------------------------------------------------------

             Standard Nuclear Orientation (Angstroms)
    I     Atom           X                Y                Z
 ----------------------------------------------------------------
    1      C      -5.5330538711     0.5398744983    -0.1600444286
    2      C      -4.4402992001     1.3787449229     0.1202224648
    3      H      -5.9874178877     0.3080094033    -1.1127393474
    4      H      -6.1934328300     0.5774416896     0.6975586841
    5      H      -4.4763340729    -0.3009890431     0.2902976910
    6      O      -3.2982450358    -0.0023570343     0.5674578619
    7      H      -4.2132005828     1.9841687922     0.9868953824
    8      H      -3.9427397072     1.6742760620    -0.7940268896
    9      H      -2.5960092097    -0.2960320339    -0.0227312553
 ----------------------------------------------------------------

    7    -154.8495083068      4.04E-05 Convergence criterion met
    7    -154.9257632516      4.38E-06 Convergence criterion met
 Total energy in the final basis set = -154.92576325

                    Orbital Energies (a.u.)
 --------------------------------------------------------------

 Alpha MOs
 -- Occupied --
-19.2380 -10.3527 -10.2555  -1.0848  -0.8778  -0.6966  -0.6143  -0.5705
 -0.5169  -0.4424  -0.4338  -0.4220  -0.3068

                    Cartesian Multipole Moments
 -----------------------------------------------------------------
    Charge (ESU x 10^10)
                -0.0000
    Dipole Moment (Debye)
         X       0.4752      Y       0.8818      Z      -1.2910
       Tot       1.6341
    Quadrupole Moments (Debye-Ang)
        XX     -24.5351     XY      -3.5808     YY     -19.0295
        XZ       3.2741     YZ       1.2162     ZZ     -20.6716

 Total job time:  17.15s(wall), 88.64s(cpu)
        *  Thank you very much for using Q-Chem.  Have a nice day.  *
