 Q-Chem 5.3 (devel), Q-Chem, Inc., Pleasanton, CA (2020)
 Q-Chem 5.3.0 for Intel X86 EM64T Linux

User input:
--------------------------------------------------------------
$rem
   JOBTYPE  sp
   EXCHANGE   omegaB97X-D
   BASIS   6-311+G(2df,2pd)
   UNRESTRICTED   False
   max_scf_cycles   250
   geom_opt_max_cycles   1500
   basis2 6-31G*
   scf_algorithm rca_diis
   SYM_IGNORE  TRUE
   print_input   true
   geom_opt_dmax   80
   pop_mulliken false
   XC_GRID 000075000302
$end

$molecule
0 1
C       -5.5082389313     0.5765278471     -0.0564708402
C       -4.3644136156     1.3256214025     0.1125271292
H       -5.8190234525     0.3402547858     -1.0640945148
H       -6.2632362266     0.6217107442     0.7146646285
H       -4.4541422389     -0.3618629670     0.2860713812
O       -3.2730632517     -0.0779956145     0.5707873615
H       -4.4102360434     2.0412390412     0.9204103488
H       -3.9560105069     1.7277561283     -0.8059333164
H       -2.6323681303     -0.3301141105     -0.1050720146
$end
--------------------------------------------------------------

             Standard Nuclear Orientation (Angstroms)
    I     Atom           X                Y                Z
 ----------------------------------------------------------------
    1      C      -5.5082389313     0.5765278471    -0.0564708402
    2      C      -4.3644136156     1.3256214025     0.1125271292
    3      H      -5.8190234525     0.3402547858    -1.0640945148
    4      H      -6.2632362266     0.6217107442     0.7146646285
    5      H      -4.4541422389    -0.3618629670     0.2860713812
    6      O      -3.2730632517    -0.0779956145     0.5707873615
    7      H      -4.4102360434     2.0412390412     0.9204103488
    8      H      -3.9560105069     1.7277561283    -0.8059333164
    9      H      -2.6323681303    -0.3301141105    -0.1050720146
 ----------------------------------------------------------------

    7    -154.8522501805      4.18E-05 Convergence criterion met
    7    -154.9278169980      4.47E-06 Convergence criterion met
 Total energy in the final basis set = -154.92781700

                    Orbital Energies (a.u.)
 --------------------------------------------------------------

 Alpha MOs
 -- Occupied --
-19.2536 -10.3457 -10.2467  -1.0959  -0.8819  -0.6865  -0.6174  -0.5745
 -0.5033  -0.4544  -0.4450  -0.4346  -0.3025

                    Cartesian Multipole Moments
 -----------------------------------------------------------------
    Charge (ESU x 10^10)
                 0.0000
    Dipole Moment (Debye)
         X       0.5046      Y       0.8392      Z      -1.4229
       Tot       1.7273
    Quadrupole Moments (Debye-Ang)
        XX     -25.1431     XY      -3.7492     YY     -19.0308
        XZ       3.1125     YZ       1.0199     ZZ     -20.7672

 Total job time:  14.57s(wall), 75.60s(cpu)
        *  Thank you very much for using Q-Chem.  Have a nice day.  *
