 Q-Chem 5.3 (devel), Q-Chem, Inc., Pleasanton, CA (2020)
 Q-Chem 5.3.0 for Intel X86 EM64T Linux

User input:
--------------------------------------------------------------
$rem
   JOBTYPE  sp
   EXCHANGE   omegaB97X-D
   BASIS   6-311+G(2df,2pd)
   UNRESTRICTED   False
   max_scf_cycles   250
   geom_opt_max_cycles   1500
   basis2 6-31G*
   scf_algorithm rca_diis
   SYM_IGNORE  TRUE
   print_input   true
   geom_opt_dmax   80
   pop_mulliken false
   XC_GRID 000075000302
$end

$molecule
0 1
C       -5.5325413761     0.5463734470     -0.0695317033
C       -4.3988980223     1.3728089924     0.0647029636
H       -5.9109568622     0.3067272930     -1.1289104105
H       -6.3276487068     0.5749507347     0.7486723699
H       -4.4590545151     -0.3043333493     0.2912101140
O       -3.2849065576     -0.0156976207     0.5876824855
H       -4.2518490150     1.9498121280     0.9284761323
H       -3.8801615317     1.7019740979     -0.7726092356
H       -2.6347158105     -0.2694784659     -0.0768025526
$end
--------------------------------------------------------------

             Standard Nuclear Orientation (Angstroms)
    I     Atom           X                Y                Z
 ----------------------------------------------------------------
    1      C      -5.5325413761     0.5463734470    -0.0695317033
    2      C      -4.3988980223     1.3728089924     0.0647029636
    3      H      -5.9109568622     0.3067272930    -1.1289104105
    4      H      -6.3276487068     0.5749507347     0.7486723699
    5      H      -4.4590545151    -0.3043333493     0.2912101140
    6      O      -3.2849065576    -0.0156976207     0.5876824855
    7      H      -4.2518490150     1.9498121280     0.9284761323
    8      H      -3.8801615317     1.7019740979    -0.7726092356
    9      H      -2.6347158105    -0.2694784659    -0.0768025526
 ----------------------------------------------------------------

    7    -154.8554023223      4.25E-05 Convergence criterion met
    7    -154.9307105253      4.76E-06 Convergence criterion met
 Total energy in the final basis set = -154.93071053

                    Orbital Energies (a.u.)
 --------------------------------------------------------------

 Alpha MOs
 -- Occupied --
-19.2426 -10.3472 -10.2667  -1.0890  -0.8761  -0.6977  -0.6104  -0.5723
 -0.5030  -0.4536  -0.4373  -0.4290  -0.3055

                    Cartesian Multipole Moments
 -----------------------------------------------------------------
    Charge (ESU x 10^10)
                 0.0000
    Dipole Moment (Debye)
         X       0.5208      Y       0.9910      Z      -1.4457
       Tot       1.8285
    Quadrupole Moments (Debye-Ang)
        XX     -25.1791     XY      -3.8472     YY     -19.0461
        XZ       3.2150     YZ       0.9007     ZZ     -20.8477

 Total job time:  15.41s(wall), 80.98s(cpu)
        *  Thank you very much for using Q-Chem.  Have a nice day.  *
