 Q-Chem 5.3 (devel), Q-Chem, Inc., Pleasanton, CA (2020)
 Q-Chem 5.3.0 for Intel X86 EM64T Linux

User input:
--------------------------------------------------------------
$rem
   JOBTYPE  sp
   EXCHANGE   omegaB97X-D
   BASIS   6-311+G(2df,2pd)
   UNRESTRICTED   False
   max_scf_cycles   250
   geom_opt_max_cycles   1500
   basis2 6-31G*
   scf_algorithm rca_diis
   SYM_IGNORE  TRUE
   print_input   true
   geom_opt_dmax   80
   pop_mulliken false
   XC_GRID 000075000302
$end

$molecule
0 1
C       -5.5397300379     0.5330636688     -0.0889520149
C       -4.4127843590     1.3696837977     0.0655536382
H       -5.8911016562     0.3121866710     -1.0880915698
H       -6.2870013837     0.5365884749     0.6936076651
H       -4.4448596975     -0.2610278019     0.3291597823
O       -3.2353797552     0.0336141425     0.6130312773
H       -4.2754812477     1.9557488652     0.9630985483
H       -3.8586779434     1.7239707022     -0.7942544669
H       -2.7357163167     -0.3406912635     -0.1202626964
$end
--------------------------------------------------------------

             Standard Nuclear Orientation (Angstroms)
    I     Atom           X                Y                Z
 ----------------------------------------------------------------
    1      C      -5.5397300379     0.5330636688    -0.0889520149
    2      C      -4.4127843590     1.3696837977     0.0655536382
    3      H      -5.8911016562     0.3121866710    -1.0880915698
    4      H      -6.2870013837     0.5365884749     0.6936076651
    5      H      -4.4448596975    -0.2610278019     0.3291597823
    6      O      -3.2353797552     0.0336141425     0.6130312773
    7      H      -4.2754812477     1.9557488652     0.9630985483
    8      H      -3.8586779434     1.7239707022    -0.7942544669
    9      H      -2.7357163167    -0.3406912635    -0.1202626964
 ----------------------------------------------------------------

    7    -154.8606333520      4.33E-05 Convergence criterion met
    7    -154.9359242606      9.57E-06 Convergence criterion met
 Total energy in the final basis set = -154.93592426

                    Orbital Energies (a.u.)
 --------------------------------------------------------------

 Alpha MOs
 -- Occupied --
-19.2385 -10.3574 -10.2598  -1.0846  -0.8781  -0.7001  -0.6005  -0.5684
 -0.5145  -0.4635  -0.4450  -0.4183  -0.3066

                    Cartesian Multipole Moments
 -----------------------------------------------------------------
    Charge (ESU x 10^10)
                -0.0000
    Dipole Moment (Debye)
         X       0.0216      Y       0.8603      Z      -1.5364
       Tot       1.7610
    Quadrupole Moments (Debye-Ang)
        XX     -21.6795     XY      -3.6879     YY     -18.8430
        XZ       3.3679     YZ       0.9092     ZZ     -20.7031

 Total job time:  17.20s(wall), 90.01s(cpu)
        *  Thank you very much for using Q-Chem.  Have a nice day.  *
