 Q-Chem 5.3 (devel), Q-Chem, Inc., Pleasanton, CA (2020)
 Q-Chem 5.3.0 for Intel X86 EM64T Linux

User input:
--------------------------------------------------------------
$rem
   JOBTYPE  sp
   EXCHANGE   omegaB97X-D
   BASIS   6-311+G(2df,2pd)
   UNRESTRICTED   False
   max_scf_cycles   250
   geom_opt_max_cycles   1500
   basis2 6-31G*
   scf_algorithm rca_diis
   SYM_IGNORE  TRUE
   print_input   true
   geom_opt_dmax   80
   pop_mulliken false
   XC_GRID 000075000302
$end

$molecule
0 1
C       -5.5324782214     0.5259944629     -0.0507539387
C       -4.3908078047     1.3408992626     0.1034128738
H       -5.8269909048     0.1713715036     -1.0305783126
H       -6.3195759098     0.7157376213     0.6648717179
H       -4.4350838662     -0.2979895869     0.1597757222
O       -3.3127758888     -0.0911196776     0.6580279976
H       -4.2002729606     1.9309096735     0.9877470735
H       -3.9172890774     1.7080049907     -0.7994506970
H       -2.7454577635     -0.1406709930     -0.1201622735
$end
--------------------------------------------------------------

             Standard Nuclear Orientation (Angstroms)
    I     Atom           X                Y                Z
 ----------------------------------------------------------------
    1      C      -5.5324782214     0.5259944629    -0.0507539387
    2      C      -4.3908078047     1.3408992626     0.1034128738
    3      H      -5.8269909048     0.1713715036    -1.0305783126
    4      H      -6.3195759098     0.7157376213     0.6648717179
    5      H      -4.4350838662    -0.2979895869     0.1597757222
    6      O      -3.3127758888    -0.0911196776     0.6580279976
    7      H      -4.2002729606     1.9309096735     0.9877470735
    8      H      -3.9172890774     1.7080049907    -0.7994506970
    9      H      -2.7454577635    -0.1406709930    -0.1201622735
 ----------------------------------------------------------------

    7    -154.8487542152      4.46E-05 Convergence criterion met
    8    -154.9247582858      6.75E-06 Convergence criterion met
 Total energy in the final basis set = -154.92475829

                    Orbital Energies (a.u.)
 --------------------------------------------------------------

 Alpha MOs
 -- Occupied --
-19.2450 -10.3572 -10.2557  -1.0943  -0.8789  -0.7003  -0.5988  -0.5797
 -0.5084  -0.4698  -0.4483  -0.4254  -0.3007

                    Cartesian Multipole Moments
 -----------------------------------------------------------------
    Charge (ESU x 10^10)
                 0.0000
    Dipole Moment (Debye)
         X       0.3341      Y       1.3463      Z      -1.6986
       Tot       2.1930
    Quadrupole Moments (Debye-Ang)
        XX     -24.0386     XY      -4.9496     YY     -19.1301
        XZ       4.2976     YZ       1.5116     ZZ     -20.9412

 Total job time:  18.82s(wall), 100.76s(cpu)
        *  Thank you very much for using Q-Chem.  Have a nice day.  *
