 Q-Chem 5.3 (devel), Q-Chem, Inc., Pleasanton, CA (2020)
 Q-Chem 5.3.0 for Intel X86 EM64T Linux

User input:
--------------------------------------------------------------
$rem
   JOBTYPE  sp
   EXCHANGE   omegaB97X-D
   BASIS   6-311+G(2df,2pd)
   UNRESTRICTED   False
   max_scf_cycles   250
   geom_opt_max_cycles   1500
   basis2 6-31G*
   scf_algorithm rca_diis
   SYM_IGNORE  TRUE
   print_input   true
   geom_opt_dmax   80
   pop_mulliken false
   XC_GRID 000075000302
$end

$molecule
0 1
C       -5.5625635153     0.5489978704     -0.0691175954
C       -4.4345027338     1.3849022645     0.0369776298
H       -5.8459801343     0.3057474370     -1.0852729498
H       -6.3634719850     0.5709012278     0.6574079058
H       -4.4884379196     -0.2953640746     0.3486071289
O       -3.3146199988     0.0033363068     0.5944617025
H       -4.0349648991     1.7830665166     0.9541939511
H       -4.0421880114     1.8226414329     -0.8779564827
H       -2.5940032001     -0.2610917242     0.0135888732
$end
--------------------------------------------------------------

             Standard Nuclear Orientation (Angstroms)
    I     Atom           X                Y                Z
 ----------------------------------------------------------------
    1      C      -5.5625635153     0.5489978704    -0.0691175954
    2      C      -4.4345027338     1.3849022645     0.0369776298
    3      H      -5.8459801343     0.3057474370    -1.0852729498
    4      H      -6.3634719850     0.5709012278     0.6574079058
    5      H      -4.4884379196    -0.2953640746     0.3486071289
    6      O      -3.3146199988     0.0033363068     0.5944617025
    7      H      -4.0349648991     1.7830665166     0.9541939511
    8      H      -4.0421880114     1.8226414329    -0.8779564827
    9      H      -2.5940032001    -0.2610917242     0.0135888732
 ----------------------------------------------------------------

    7    -154.8502228445      4.19E-05 Convergence criterion met
    7    -154.9263257756      8.24E-06 Convergence criterion met
 Total energy in the final basis set = -154.92632578

                    Orbital Energies (a.u.)
 --------------------------------------------------------------

 Alpha MOs
 -- Occupied --
-19.2384 -10.3495 -10.2556  -1.0862  -0.8742  -0.6970  -0.6216  -0.5623
 -0.5037  -0.4563  -0.4436  -0.4118  -0.3065

                    Cartesian Multipole Moments
 -----------------------------------------------------------------
    Charge (ESU x 10^10)
                 0.0000
    Dipole Moment (Debye)
         X       0.5808      Y       0.8437      Z      -1.3770
       Tot       1.7162
    Quadrupole Moments (Debye-Ang)
        XX     -25.0601     XY      -3.1879     YY     -19.3749
        XZ       3.4862     YZ       0.4413     ZZ     -20.8840

 Total job time:  15.23s(wall), 80.29s(cpu)
        *  Thank you very much for using Q-Chem.  Have a nice day.  *
