 Q-Chem 5.3 (devel), Q-Chem, Inc., Pleasanton, CA (2020)
 Q-Chem 5.3.0 for Intel X86 EM64T Linux

User input:
--------------------------------------------------------------
$rem
   JOBTYPE  sp
   EXCHANGE   omegaB97X-D
   BASIS   6-311+G(2df,2pd)
   UNRESTRICTED   False
   max_scf_cycles   250
   geom_opt_max_cycles   1500
   basis2 6-31G*
   scf_algorithm rca_diis
   SYM_IGNORE  TRUE
   print_input   true
   geom_opt_dmax   80
   pop_mulliken false
   XC_GRID 000075000302
$end

$molecule
0 1
C       -5.5160307680     0.5517070247     -0.0634009454
C       -4.4354726856     1.3360375605     0.0685786848
H       -5.9714107840     0.2792705768     -1.0061436932
H       -6.3522941448     0.5385687070     0.6213591068
H       -4.4830728110     -0.3700205561     0.2845532769
O       -3.2900091576     -0.0092302302     0.5911351875
H       -4.1700378759     2.0080904019     0.8723851428
H       -3.8147147987     1.7699808256     -0.7061101233
H       -2.6476893717     -0.2412670532     -0.0894664736
$end
--------------------------------------------------------------

             Standard Nuclear Orientation (Angstroms)
    I     Atom           X                Y                Z
 ----------------------------------------------------------------
    1      C      -5.5160307680     0.5517070247    -0.0634009454
    2      C      -4.4354726856     1.3360375605     0.0685786848
    3      H      -5.9714107840     0.2792705768    -1.0061436932
    4      H      -6.3522941448     0.5385687070     0.6213591068
    5      H      -4.4830728110    -0.3700205561     0.2845532769
    6      O      -3.2900091576    -0.0092302302     0.5911351875
    7      H      -4.1700378759     2.0080904019     0.8723851428
    8      H      -3.8147147987     1.7699808256    -0.7061101233
    9      H      -2.6476893717    -0.2412670532    -0.0894664736
 ----------------------------------------------------------------

    7    -154.8465103229      2.61E-05 Convergence criterion met
    7    -154.9225312992      7.49E-06 Convergence criterion met
 Total energy in the final basis set = -154.92253130

                    Orbital Energies (a.u.)
 --------------------------------------------------------------

 Alpha MOs
 -- Occupied --
-19.2412 -10.3469 -10.2525  -1.0855  -0.8838  -0.7103  -0.6094  -0.5559
 -0.5310  -0.4573  -0.4283  -0.4183  -0.3102

                    Cartesian Multipole Moments
 -----------------------------------------------------------------
    Charge (ESU x 10^10)
                 0.0000
    Dipole Moment (Debye)
         X       0.2928      Y       0.8988      Z      -1.5044
       Tot       1.7767
    Quadrupole Moments (Debye-Ang)
        XX     -22.3663     XY      -3.1592     YY     -18.6584
        XZ       3.7544     YZ       0.7974     ZZ     -21.6093

 Total job time:  18.50s(wall), 96.64s(cpu)
        *  Thank you very much for using Q-Chem.  Have a nice day.  *
