 Q-Chem 5.3 (devel), Q-Chem, Inc., Pleasanton, CA (2020)
 Q-Chem 5.3.0 for Intel X86 EM64T Linux

User input:
--------------------------------------------------------------
$rem
   JOBTYPE  sp
   EXCHANGE   omegaB97X-D
   BASIS   6-311+G(2df,2pd)
   UNRESTRICTED   False
   max_scf_cycles   250
   geom_opt_max_cycles   1500
   basis2 6-31G*
   scf_algorithm rca_diis
   SYM_IGNORE  TRUE
   print_input   true
   geom_opt_dmax   80
   pop_mulliken false
   XC_GRID 000075000302
$end

$molecule
0 1
C       -5.5726004674     0.5114592202     -0.0860990048
C       -4.4467868672     1.4097040855     0.0303603185
H       -5.9650478721     0.3051432728     -1.0754276524
H       -6.3226046625     0.5175592154     0.6957446886
H       -4.4786434697     -0.2553186790     0.2896800031
O       -3.3120163861     0.0344357828     0.6064272882
H       -4.1250700853     1.8650813915     0.9571849709
H       -3.8081792199     1.6890244593     -0.7986310893
H       -2.6497833672     -0.2139514914     -0.0463493594
$end
--------------------------------------------------------------

             Standard Nuclear Orientation (Angstroms)
    I     Atom           X                Y                Z
 ----------------------------------------------------------------
    1      C      -5.5726004674     0.5114592202    -0.0860990048
    2      C      -4.4467868672     1.4097040855     0.0303603185
    3      H      -5.9650478721     0.3051432728    -1.0754276524
    4      H      -6.3226046625     0.5175592154     0.6957446886
    5      H      -4.4786434697    -0.2553186790     0.2896800031
    6      O      -3.3120163861     0.0344357828     0.6064272882
    7      H      -4.1250700853     1.8650813915     0.9571849709
    8      H      -3.8081792199     1.6890244593    -0.7986310893
    9      H      -2.6497833672    -0.2139514914    -0.0463493594
 ----------------------------------------------------------------

    7    -154.8545714753      4.22E-05 Convergence criterion met
    8    -154.9300081860      3.54E-06 Convergence criterion met
 Total energy in the final basis set = -154.93000819

                    Orbital Energies (a.u.)
 --------------------------------------------------------------

 Alpha MOs
 -- Occupied --
-19.2341 -10.3590 -10.2628  -1.0842  -0.8695  -0.7064  -0.6084  -0.5623
 -0.5082  -0.4612  -0.4384  -0.4144  -0.3082

                    Cartesian Multipole Moments
 -----------------------------------------------------------------
    Charge (ESU x 10^10)
                 0.0000
    Dipole Moment (Debye)
         X       0.4211      Y       0.9915      Z      -1.4925
       Tot       1.8406
    Quadrupole Moments (Debye-Ang)
        XX     -23.8759     XY      -3.5632     YY     -19.3372
        XZ       3.5706     YZ       0.6890     ZZ     -20.9717

 Total job time:  16.77s(wall), 88.98s(cpu)
        *  Thank you very much for using Q-Chem.  Have a nice day.  *
