 Q-Chem 5.3 (devel), Q-Chem, Inc., Pleasanton, CA (2020)
 Q-Chem 5.3.0 for Intel X86 EM64T Linux

User input:
--------------------------------------------------------------
$rem
   JOBTYPE  sp
   EXCHANGE   omegaB97X-D
   BASIS   6-311+G(2df,2pd)
   UNRESTRICTED   False
   max_scf_cycles   250
   geom_opt_max_cycles   1500
   basis2 6-31G*
   scf_algorithm rca_diis
   SYM_IGNORE  TRUE
   print_input   true
   geom_opt_dmax   80
   pop_mulliken false
   XC_GRID 000075000302
$end

$molecule
0 1
C       -5.5847741477     0.5262274324     -0.0773912532
C       -4.3535087466     1.3797068365     0.0928297186
H       -5.9725778546     0.2613607198     -1.0573878539
H       -6.3760991905     0.5419642053     0.6665255225
H       -4.4279370817     -0.3469456920     0.2894277676
O       -3.2894367518     -0.0510405962     0.5835033391
H       -4.2151348809     2.0540474681     0.9329510897
H       -3.8227458099     1.7819256966     -0.7682971239
H       -2.6385179336     -0.2841088134     -0.0892710431
$end
--------------------------------------------------------------

             Standard Nuclear Orientation (Angstroms)
    I     Atom           X                Y                Z
 ----------------------------------------------------------------
    1      C      -5.5847741477     0.5262274324    -0.0773912532
    2      C      -4.3535087466     1.3797068365     0.0928297186
    3      H      -5.9725778546     0.2613607198    -1.0573878539
    4      H      -6.3760991905     0.5419642053     0.6665255225
    5      H      -4.4279370817    -0.3469456920     0.2894277676
    6      O      -3.2894367518    -0.0510405962     0.5835033391
    7      H      -4.2151348809     2.0540474681     0.9329510897
    8      H      -3.8227458099     1.7819256966    -0.7682971239
    9      H      -2.6385179336    -0.2841088134    -0.0892710431
 ----------------------------------------------------------------

    7    -154.8531787558      4.53E-05 Convergence criterion met
    7    -154.9278366185      9.93E-06 Convergence criterion met
 Total energy in the final basis set = -154.92783662

                    Orbital Energies (a.u.)
 --------------------------------------------------------------

 Alpha MOs
 -- Occupied --
-19.2612 -10.3674 -10.2603  -1.1034  -0.8502  -0.7030  -0.6193  -0.5532
 -0.5021  -0.4542  -0.4480  -0.4401  -0.2950

                    Cartesian Multipole Moments
 -----------------------------------------------------------------
    Charge (ESU x 10^10)
                -0.0000
    Dipole Moment (Debye)
         X       1.0380      Y       0.9313      Z      -1.3233
       Tot       1.9225
    Quadrupole Moments (Debye-Ang)
        XX     -29.4593     XY      -3.2020     YY     -18.9843
        XZ       2.9414     YZ       1.0711     ZZ     -21.2417

 Total job time:  16.94s(wall), 88.17s(cpu)
        *  Thank you very much for using Q-Chem.  Have a nice day.  *
