 Q-Chem 5.3 (devel), Q-Chem, Inc., Pleasanton, CA (2020)
 Q-Chem 5.3.0 for Intel X86 EM64T Linux

User input:
--------------------------------------------------------------
$rem
   JOBTYPE  sp
   EXCHANGE   omegaB97X-D
   BASIS   6-311+G(2df,2pd)
   UNRESTRICTED   False
   max_scf_cycles   250
   geom_opt_max_cycles   1500
   basis2 6-31G*
   scf_algorithm rca_diis
   SYM_IGNORE  TRUE
   print_input   true
   geom_opt_dmax   80
   pop_mulliken false
   XC_GRID 000075000302
$end

$molecule
0 1
C       -5.5619780045     0.5339012443     -0.0776443974
C       -4.3966677044     1.3785193576     0.0635496493
H       -5.8610203514     0.3359584827     -1.0991687749
H       -6.2666773249     0.5830656387     0.7422196662
H       -4.4595556407     -0.2752635969     0.2908267038
O       -3.2973775208     -0.0165323795     0.5843028229
H       -4.3002326580     1.9280790240     0.9893705197
H       -3.8955900477     1.6738315217     -0.8495073977
H       -2.6416331449     -0.2784220356     -0.0710586287
$end
--------------------------------------------------------------

             Standard Nuclear Orientation (Angstroms)
    I     Atom           X                Y                Z
 ----------------------------------------------------------------
    1      C      -5.5619780045     0.5339012443    -0.0776443974
    2      C      -4.3966677044     1.3785193576     0.0635496493
    3      H      -5.8610203514     0.3359584827    -1.0991687749
    4      H      -6.2666773249     0.5830656387     0.7422196662
    5      H      -4.4595556407    -0.2752635969     0.2908267038
    6      O      -3.2973775208    -0.0165323795     0.5843028229
    7      H      -4.3002326580     1.9280790240     0.9893705197
    8      H      -3.8955900477     1.6738315217    -0.8495073977
    9      H      -2.6416331449    -0.2784220356    -0.0710586287
 ----------------------------------------------------------------

    7    -154.8584272426      4.23E-05 Convergence criterion met
    7    -154.9340553410      7.47E-06 Convergence criterion met
 Total energy in the final basis set = -154.93405534

                    Orbital Energies (a.u.)
 --------------------------------------------------------------

 Alpha MOs
 -- Occupied --
-19.2440 -10.3572 -10.2549  -1.0920  -0.8708  -0.6922  -0.6147  -0.5772
 -0.4953  -0.4616  -0.4408  -0.4285  -0.3023

                    Cartesian Multipole Moments
 -----------------------------------------------------------------
    Charge (ESU x 10^10)
                 0.0000
    Dipole Moment (Debye)
         X       0.6052      Y       0.9711      Z      -1.4135
       Tot       1.8186
    Quadrupole Moments (Debye-Ang)
        XX     -26.1600     XY      -3.9750     YY     -19.3474
        XZ       3.0194     YZ       0.9334     ZZ     -20.4497

 Total job time:  14.83s(wall), 77.01s(cpu)
        *  Thank you very much for using Q-Chem.  Have a nice day.  *
