 Q-Chem 5.3 (devel), Q-Chem, Inc., Pleasanton, CA (2020)
 Q-Chem 5.3.0 for Intel X86 EM64T Linux

User input:
--------------------------------------------------------------
$rem
   JOBTYPE  sp
   EXCHANGE   omegaB97X-D
   BASIS   6-311+G(2df,2pd)
   UNRESTRICTED   False
   max_scf_cycles   250
   geom_opt_max_cycles   1500
   basis2 6-31G*
   scf_algorithm rca_diis
   SYM_IGNORE  TRUE
   print_input   true
   geom_opt_dmax   80
   pop_mulliken false
   XC_GRID 000075000302
$end

$molecule
0 1
C       -5.5571429991     0.5093946710     -0.0767651741
C       -4.3439591805     1.2460745436     0.1099894239
H       -5.9079032471     0.3690806231     -1.0913671759
H       -6.3421610972     0.6656440832     0.6521232805
H       -4.2215205020     -0.4409220921     0.4222713340
O       -3.4179753876     0.0945628084     0.5426960609
H       -4.2746834792     1.9327044919     0.9465078531
H       -3.8056462866     1.6190541909     -0.7576666875
H       -2.8097402178     -0.1324560630     -0.1748987516
$end
--------------------------------------------------------------

             Standard Nuclear Orientation (Angstroms)
    I     Atom           X                Y                Z
 ----------------------------------------------------------------
    1      C      -5.5571429991     0.5093946710    -0.0767651741
    2      C      -4.3439591805     1.2460745436     0.1099894239
    3      H      -5.9079032471     0.3690806231    -1.0913671759
    4      H      -6.3421610972     0.6656440832     0.6521232805
    5      H      -4.2215205020    -0.4409220921     0.4222713340
    6      O      -3.4179753876     0.0945628084     0.5426960609
    7      H      -4.2746834792     1.9327044919     0.9465078531
    8      H      -3.8056462866     1.6190541909    -0.7576666875
    9      H      -2.8097402178    -0.1324560630    -0.1748987516
 ----------------------------------------------------------------

    7    -154.8400217282      2.81E-05 Convergence criterion met
    7    -154.9192493989      6.75E-06 Convergence criterion met
 Total energy in the final basis set = -154.91924940

                    Orbital Energies (a.u.)
 --------------------------------------------------------------

 Alpha MOs
 -- Occupied --
-19.3384 -10.3408 -10.2124  -1.2368  -0.8552  -0.7232  -0.6896  -0.5942
 -0.5527  -0.5076  -0.4575  -0.4151  -0.2560

                    Cartesian Multipole Moments
 -----------------------------------------------------------------
    Charge (ESU x 10^10)
                -0.0000
    Dipole Moment (Debye)
         X       3.2088      Y       0.2222      Z      -0.6211
       Tot       3.2758
    Quadrupole Moments (Debye-Ang)
        XX     -49.3036     XY      -0.6335     YY     -20.9516
        XZ       0.5818     YZ       0.7453     ZZ     -20.9449

 Total job time:  12.14s(wall), 63.34s(cpu)
        *  Thank you very much for using Q-Chem.  Have a nice day.  *
