 Q-Chem 5.3 (devel), Q-Chem, Inc., Pleasanton, CA (2020)
 Q-Chem 5.3.0 for Intel X86 EM64T Linux

User input:
--------------------------------------------------------------
$rem
   JOBTYPE  sp
   EXCHANGE   omegaB97X-D
   BASIS   6-311+G(2df,2pd)
   UNRESTRICTED   False
   max_scf_cycles   250
   geom_opt_max_cycles   1500
   basis2 6-31G*
   scf_algorithm rca_diis
   SYM_IGNORE  TRUE
   print_input   true
   geom_opt_dmax   80
   pop_mulliken false
   XC_GRID 000075000302
$end

$molecule
0 1
C       -5.5077980989     0.5722594232     -0.0666712184
C       -4.5061175038     1.5326901626     0.0296553130
H       -5.8315156262     0.2418375120     -1.0449115319
H       -6.2062934248     0.4409558468     0.7478526720
H       -4.6444698460     -0.1061551494     0.1853189968
O       -3.1934957741     -0.2203427953     0.6152576936
H       -4.2972045280     2.0557046119     0.9481160059
H       -3.9768530757     1.8697024633     -0.8477026542
H       -2.5169845198     -0.5235148180     0.0059748865
$end
--------------------------------------------------------------

             Standard Nuclear Orientation (Angstroms)
    I     Atom           X                Y                Z
 ----------------------------------------------------------------
    1      C      -5.5077980989     0.5722594232    -0.0666712184
    2      C      -4.5061175038     1.5326901626     0.0296553130
    3      H      -5.8315156262     0.2418375120    -1.0449115319
    4      H      -6.2062934248     0.4409558468     0.7478526720
    5      H      -4.6444698460    -0.1061551494     0.1853189968
    6      O      -3.1934957741    -0.2203427953     0.6152576936
    7      H      -4.2972045280     2.0557046119     0.9481160059
    8      H      -3.9768530757     1.8697024633    -0.8477026542
    9      H      -2.5169845198    -0.5235148180     0.0059748865
 ----------------------------------------------------------------

    9    -154.8380151943      1.39E-05 Convergence criterion met
   14    -154.9187078433      4.65E-06 Convergence criterion met
 Total energy in the final basis set = -154.91870784

                    Orbital Energies (a.u.)
 --------------------------------------------------------------

 Alpha MOs
 -- Occupied --
-19.1740 -10.3813 -10.2896  -0.9985  -0.9207  -0.7317  -0.6006  -0.5709
 -0.5223  -0.4818  -0.4331  -0.3371  -0.3115

                    Cartesian Multipole Moments
 -----------------------------------------------------------------
    Charge (ESU x 10^10)
                 0.0000
    Dipole Moment (Debye)
         X      -2.0682      Y       2.3587      Z      -2.1289
       Tot       3.7912
    Quadrupole Moments (Debye-Ang)
        XX      -2.7065     XY      -9.9266     YY     -16.8129
        XZ       5.4895     YZ       1.2834     ZZ     -20.8354

 Total job time:  21.51s(wall), 118.94s(cpu)
        *  Thank you very much for using Q-Chem.  Have a nice day.  *
