 Q-Chem 5.3 (devel), Q-Chem, Inc., Pleasanton, CA (2020)
 Q-Chem 5.3.0 for Intel X86 EM64T Linux

User input:
--------------------------------------------------------------
$rem
   JOBTYPE  sp
   EXCHANGE   omegaB97X-D
   BASIS   6-311+G(2df,2pd)
   UNRESTRICTED   False
   max_scf_cycles   250
   geom_opt_max_cycles   1500
   basis2 6-31G*
   scf_algorithm rca_diis
   SYM_IGNORE  TRUE
   print_input   true
   geom_opt_dmax   80
   pop_mulliken false
   XC_GRID 000075000302
$end

$molecule
0 1
C       -5.5652595964     0.5330194869     -0.0749818335
C       -4.3818208994     1.3733396434     0.0787277429
H       -5.9351809171     0.2882504141     -1.0646672573
H       -6.3368997432     0.5542938995     0.6860530255
H       -4.4474939403     -0.3284813809     0.2895047393
O       -3.2912227761     -0.0353788063     0.5852097943
H       -4.2373412189     2.0089418687     0.9442686606
H       -3.8451799123     1.7473242620     -0.7878421726
H       -2.6403333936     -0.2781721303     -0.0833825358
$end
--------------------------------------------------------------

             Standard Nuclear Orientation (Angstroms)
    I     Atom           X                Y                Z
 ----------------------------------------------------------------
    1      C      -5.5652595964     0.5330194869    -0.0749818335
    2      C      -4.3818208994     1.3733396434     0.0787277429
    3      H      -5.9351809171     0.2882504141    -1.0646672573
    4      H      -6.3368997432     0.5542938995     0.6860530255
    5      H      -4.4474939403    -0.3284813809     0.2895047393
    6      O      -3.2912227761    -0.0353788063     0.5852097943
    7      H      -4.2373412189     2.0089418687     0.9442686606
    8      H      -3.8451799123     1.7473242620    -0.7878421726
    9      H      -2.6403333936    -0.2781721303    -0.0833825358
 ----------------------------------------------------------------

    7    -154.8600169464      4.33E-05 Convergence criterion met
    7    -154.9348826570      7.41E-06 Convergence criterion met
 Total energy in the final basis set = -154.93488266

                    Orbital Energies (a.u.)
 --------------------------------------------------------------

 Alpha MOs
 -- Occupied --
-19.2518 -10.3610 -10.2574  -1.0958  -0.8616  -0.7004  -0.6146  -0.5609
 -0.5041  -0.4550  -0.4421  -0.4369  -0.3002

                    Cartesian Multipole Moments
 -----------------------------------------------------------------
    Charge (ESU x 10^10)
                 0.0000
    Dipole Moment (Debye)
         X       0.7586      Y       0.9489      Z      -1.3857
       Tot       1.8428
    Quadrupole Moments (Debye-Ang)
        XX     -27.0874     XY      -3.4920     YY     -19.0261
        XZ       3.0990     YZ       0.9903     ZZ     -21.0209

 Total job time:  16.96s(wall), 88.01s(cpu)
        *  Thank you very much for using Q-Chem.  Have a nice day.  *
