 Q-Chem 5.3 (devel), Q-Chem, Inc., Pleasanton, CA (2020)
 Q-Chem 5.3.0 for Intel X86 EM64T Linux

User input:
--------------------------------------------------------------
$rem
   JOBTYPE  sp
   EXCHANGE   omegaB97X-D
   BASIS   6-311+G(2df,2pd)
   UNRESTRICTED   False
   max_scf_cycles   250
   geom_opt_max_cycles   1500
   basis2 6-31G*
   scf_algorithm rca_diis
   SYM_IGNORE  TRUE
   print_input   true
   geom_opt_dmax   80
   pop_mulliken false
   XC_GRID 000075000302
$end

$molecule
0 1
C       -5.5583370361     0.5435550303     -0.0017365810
C       -4.4205731455     1.3657560209     0.1650724930
H       -5.7107559053     0.5278950672     -1.0763046438
H       -6.4302167991     0.3686255583     0.6089860751
H       -4.4642326163     -0.3008262210     0.3121708759
O       -3.2909247158     -0.0075432446     0.6225150944
H       -4.0429154729     2.0797530054     0.8837871695
H       -4.0762373867     1.5223556213     -0.8493856977
H       -2.6865393195     -0.2364335807     -0.0922146221
$end
--------------------------------------------------------------

             Standard Nuclear Orientation (Angstroms)
    I     Atom           X                Y                Z
 ----------------------------------------------------------------
    1      C      -5.5583370361     0.5435550303    -0.0017365810
    2      C      -4.4205731455     1.3657560209     0.1650724930
    3      H      -5.7107559053     0.5278950672    -1.0763046438
    4      H      -6.4302167991     0.3686255583     0.6089860751
    5      H      -4.4642326163    -0.3008262210     0.3121708759
    6      O      -3.2909247158    -0.0075432446     0.6225150944
    7      H      -4.0429154729     2.0797530054     0.8837871695
    8      H      -4.0762373867     1.5223556213    -0.8493856977
    9      H      -2.6865393195    -0.2364335807    -0.0922146221
 ----------------------------------------------------------------

    7    -154.8444116364      4.16E-05 Convergence criterion met
    7    -154.9201615834      4.23E-06 Convergence criterion met
 Total energy in the final basis set = -154.92016158

                    Orbital Energies (a.u.)
 --------------------------------------------------------------

 Alpha MOs
 -- Occupied --
-19.2455 -10.3567 -10.2568  -1.0935  -0.8809  -0.6963  -0.6132  -0.5761
 -0.4975  -0.4678  -0.4345  -0.4267  -0.3055

                    Cartesian Multipole Moments
 -----------------------------------------------------------------
    Charge (ESU x 10^10)
                -0.0000
    Dipole Moment (Debye)
         X       0.4659      Y       0.9499      Z      -1.5088
       Tot       1.8428
    Quadrupole Moments (Debye-Ang)
        XX     -24.8597     XY      -3.4658     YY     -19.1767
        XZ       3.6347     YZ       0.6786     ZZ     -20.9730

 Total job time:  14.56s(wall), 76.47s(cpu)
        *  Thank you very much for using Q-Chem.  Have a nice day.  *
