 Q-Chem 5.3 (devel), Q-Chem, Inc., Pleasanton, CA (2020)
 Q-Chem 5.3.0 for Intel X86 EM64T Linux

User input:
--------------------------------------------------------------
$rem
   JOBTYPE  sp
   EXCHANGE   omegaB97X-D
   BASIS   6-311+G(2df,2pd)
   UNRESTRICTED   True
   max_scf_cycles   250
   geom_opt_max_cycles   1500
   basis2 6-31G*
   scf_algorithm rca_diis
   SYM_IGNORE  TRUE
   print_input   true
   geom_opt_dmax   80
   pop_mulliken false
   XC_GRID 000075000302
$end

$molecule
0 2
N       0.0000000000     0.0000000000     -0.6572884564
O       0.0000000000     0.0000000000     0.5777804471
$end
--------------------------------------------------------------

             Standard Nuclear Orientation (Angstroms)
    I     Atom           X                Y                Z
 ----------------------------------------------------------------
    1      N       0.0000000000     0.0000000000    -0.6572884564
    2      O       0.0000000000     0.0000000000     0.5777804471
 ----------------------------------------------------------------

    9    -129.8299751665      1.20E-05 Convergence criterion met
    9    -129.8763630742      3.15E-06 Convergence criterion met
 Total energy in the final basis set = -129.87636307

                    Orbital Energies (a.u.)
 --------------------------------------------------------------

 Alpha MOs
 -- Occupied --
-19.3955 -14.5994  -1.2969  -0.8091  -0.6066  -0.5769  -0.5735  -0.3386

 Beta MOs
 -- Occupied --
-19.3870 -14.5843  -1.2733  -0.7671  -0.5631  -0.5530  -0.5295

                    Cartesian Multipole Moments
 -----------------------------------------------------------------
    Charge (ESU x 10^10)
                 0.0000
    Dipole Moment (Debye)
         X      -0.0000      Y       0.0000      Z      -0.1368
       Tot       0.1368
    Quadrupole Moments (Debye-Ang)
        XX      -9.8442     XY       0.0000     YY     -10.9423
        XZ       0.0000     YZ       0.0000     ZZ     -11.2347

 Total job time:  4.39s(wall), 19.98s(cpu)
        *  Thank you very much for using Q-Chem.  Have a nice day.  *
