 Q-Chem 5.3 (devel), Q-Chem, Inc., Pleasanton, CA (2020)
 Q-Chem 5.3.0 for Intel X86 EM64T Linux

User input:
--------------------------------------------------------------
$rem
   JOBTYPE  sp
   EXCHANGE   omegaB97X-D
   BASIS   6-311+G(2df,2pd)
   UNRESTRICTED   True
   max_scf_cycles   250
   geom_opt_max_cycles   1500
   basis2 6-31G*
   scf_algorithm rca_diis
   SYM_IGNORE  TRUE
   print_input   true
   geom_opt_dmax   80
   pop_mulliken false
   XC_GRID 000075000302
$end

$molecule
0 2
N       0.0000000000     0.0000000000     -0.6100698508
O       0.0000000000     0.0000000000     0.5305618415
$end
--------------------------------------------------------------

             Standard Nuclear Orientation (Angstroms)
    I     Atom           X                Y                Z
 ----------------------------------------------------------------
    1      N       0.0000000000     0.0000000000    -0.6100698508
    2      O       0.0000000000     0.0000000000     0.5305618415
 ----------------------------------------------------------------

    7    -129.8415395024      3.33E-05 Convergence criterion met
    7    -129.8912667106      8.43E-06 Convergence criterion met
 Total energy in the final basis set = -129.89126671

                    Orbital Energies (a.u.)
 --------------------------------------------------------------

 Alpha MOs
 -- Occupied --
-19.3919 -14.5753  -1.3643  -0.7905  -0.6390  -0.6093  -0.5842  -0.3035

 Beta MOs
 -- Occupied --
-19.3827 -14.5612  -1.3415  -0.7517  -0.5979  -0.5635  -0.5575

                    Cartesian Multipole Moments
 -----------------------------------------------------------------
    Charge (ESU x 10^10)
                -0.0000
    Dipole Moment (Debye)
         X      -0.0000      Y      -0.0000      Z       0.1324
       Tot       0.1324
    Quadrupole Moments (Debye-Ang)
        XX      -9.6391     XY       0.0000     YY     -10.7962
        XZ       0.0000     YZ       0.0000     ZZ     -11.3814

 Total job time:  4.20s(wall), 16.69s(cpu)
        *  Thank you very much for using Q-Chem.  Have a nice day.  *
