 Q-Chem 5.3 (devel), Q-Chem, Inc., Pleasanton, CA (2020)
 Q-Chem 5.3.0 for Intel X86 EM64T Linux

User input:
--------------------------------------------------------------
$rem
   JOBTYPE  sp
   EXCHANGE   omegaB97X-D
   BASIS   6-311+G(2df,2pd)
   UNRESTRICTED   True
   max_scf_cycles   250
   geom_opt_max_cycles   1500
   basis2 6-31G*
   scf_algorithm rca_diis
   SYM_IGNORE  TRUE
   print_input   true
   geom_opt_dmax   80
   pop_mulliken false
   XC_GRID 000075000302
$end

$molecule
0 2
N       0.0000000000     0.0000000000     -0.7281163649
O       0.0000000000     0.0000000000     0.6486083556
$end
--------------------------------------------------------------

             Standard Nuclear Orientation (Angstroms)
    I     Atom           X                Y                Z
 ----------------------------------------------------------------
    1      N       0.0000000000     0.0000000000    -0.7281163649
    2      O       0.0000000000     0.0000000000     0.6486083556
 ----------------------------------------------------------------

    9    -129.7771175797      7.58E-05 Convergence criterion met
   16    -129.8224500586      7.99E-06 Convergence criterion met
 Total energy in the final basis set = -129.82245006

                    Orbital Energies (a.u.)
 --------------------------------------------------------------

 Alpha MOs
 -- Occupied --
-19.3953 -14.6293  -1.2123  -0.8393  -0.5681  -0.5622  -0.5287  -0.3786

 Beta MOs
 -- Occupied --
-19.3906 -14.6112  -1.1923  -0.7905  -0.5421  -0.5257  -0.4913

                    Cartesian Multipole Moments
 -----------------------------------------------------------------
    Charge (ESU x 10^10)
                 0.0000
    Dipole Moment (Debye)
         X       0.0000      Y      -0.0000      Z      -0.5214
       Tot       0.5214
    Quadrupole Moments (Debye-Ang)
        XX     -11.1515     XY      -0.0000     YY     -10.1089
        XZ       0.0000     YZ      -0.0000     ZZ     -10.9907

 Total job time:  7.39s(wall), 31.35s(cpu)
        *  Thank you very much for using Q-Chem.  Have a nice day.  *
