 Q-Chem 5.3 (devel), Q-Chem, Inc., Pleasanton, CA (2020)
 Q-Chem 5.3.0 for Intel X86 EM64T Linux

User input:
--------------------------------------------------------------
$rem
   JOBTYPE  sp
   EXCHANGE   omegaB97X-D
   BASIS   6-311+G(2df,2pd)
   UNRESTRICTED   True
   max_scf_cycles   250
   geom_opt_max_cycles   1500
   basis2 6-31G*
   scf_algorithm rca_diis
   SYM_IGNORE  TRUE
   print_input   true
   geom_opt_dmax   80
   pop_mulliken false
   XC_GRID 000075000302
$end

$molecule
0 2
N       0.0000000000     0.0000000000     -0.6808977592
O       0.0000000000     0.0000000000     0.6013897499
$end
--------------------------------------------------------------

             Standard Nuclear Orientation (Angstroms)
    I     Atom           X                Y                Z
 ----------------------------------------------------------------
    1      N       0.0000000000     0.0000000000    -0.6808977592
    2      O       0.0000000000     0.0000000000     0.6013897499
 ----------------------------------------------------------------

    9    -129.8153774051      3.63E-05 Convergence criterion met
   10    -129.8610355838      3.29E-06 Convergence criterion met
 Total energy in the final basis set = -129.86103558

                    Orbital Energies (a.u.)
 --------------------------------------------------------------

 Alpha MOs
 -- Occupied --
-19.3963 -14.6104  -1.2667  -0.8190  -0.5926  -0.5725  -0.5578  -0.3536

 Beta MOs
 -- Occupied --
-19.3885 -14.5947  -1.2432  -0.7753  -0.5500  -0.5484  -0.5151

                    Cartesian Multipole Moments
 -----------------------------------------------------------------
    Charge (ESU x 10^10)
                 0.0000
    Dipole Moment (Debye)
         X       0.0000      Y      -0.0000      Z      -0.2669
       Tot       0.2669
    Quadrupole Moments (Debye-Ang)
        XX      -9.9391     XY      -0.0000     YY     -11.0161
        XZ      -0.0000     YZ       0.0000     ZZ     -11.1546

 Total job time:  3.98s(wall), 17.77s(cpu)
        *  Thank you very much for using Q-Chem.  Have a nice day.  *
