 Q-Chem 5.3 (devel), Q-Chem, Inc., Pleasanton, CA (2020)
 Q-Chem 5.3.0 for Intel X86 EM64T Linux

User input:
--------------------------------------------------------------
$rem
   JOBTYPE  sp
   EXCHANGE   omegaB97X-D
   BASIS   6-311+G(2df,2pd)
   UNRESTRICTED   True
   max_scf_cycles   250
   geom_opt_max_cycles   1500
   basis2 6-31G*
   scf_algorithm rca_diis
   SYM_IGNORE  TRUE
   print_input   true
   geom_opt_dmax   80
   pop_mulliken false
   XC_GRID 000075000302
$end

$molecule
0 2
N       0.0000000000     0.0000000000     -0.5864605480
O       0.0000000000     0.0000000000     0.5069525387
$end
--------------------------------------------------------------

             Standard Nuclear Orientation (Angstroms)
    I     Atom           X                Y                Z
 ----------------------------------------------------------------
    1      N       0.0000000000     0.0000000000    -0.5864605480
    2      O       0.0000000000     0.0000000000     0.5069525387
 ----------------------------------------------------------------

    9    -129.8332194910      3.97E-06 Convergence criterion met
    7    -129.8861008594      9.42E-06 Convergence criterion met
 Total energy in the final basis set = -129.88610086

                    Orbital Energies (a.u.)
 --------------------------------------------------------------

 Alpha MOs
 -- Occupied --
-19.3894 -14.5623  -1.4016  -0.7822  -0.6579  -0.6299  -0.5872  -0.2830

 Beta MOs
 -- Occupied --
-19.3800 -14.5487  -1.3795  -0.7450  -0.6183  -0.5836  -0.5590

                    Cartesian Multipole Moments
 -----------------------------------------------------------------
    Charge (ESU x 10^10)
                 0.0000
    Dipole Moment (Debye)
         X      -0.0000      Y      -0.0000      Z       0.2705
       Tot       0.2705
    Quadrupole Moments (Debye-Ang)
        XX      -9.5304     XY       0.0000     YY     -10.7314
        XZ      -0.0000     YZ       0.0000     ZZ     -11.4499

 Total job time:  4.38s(wall), 18.64s(cpu)
        *  Thank you very much for using Q-Chem.  Have a nice day.  *
