 Q-Chem 5.3 (devel), Q-Chem, Inc., Pleasanton, CA (2020)
 Q-Chem 5.3.0 for Intel X86 EM64T Linux

User input:
--------------------------------------------------------------
$rem
   JOBTYPE  sp
   EXCHANGE   omegaB97X-D
   BASIS   6-311+G(2df,2pd)
   UNRESTRICTED   True
   max_scf_cycles   250
   geom_opt_max_cycles   1500
   basis2 6-31G*
   scf_algorithm rca_diis
   SYM_IGNORE  TRUE
   print_input   true
   geom_opt_dmax   80
   pop_mulliken false
   XC_GRID 000075000302
$end

$molecule
0 2
N       0.0000000000     0.0000000000     -0.6336791536
O       0.0000000000     0.0000000000     0.5541711443
$end
--------------------------------------------------------------

             Standard Nuclear Orientation (Angstroms)
    I     Atom           X                Y                Z
 ----------------------------------------------------------------
    1      N       0.0000000000     0.0000000000    -0.6336791536
    2      O       0.0000000000     0.0000000000     0.5541711443
 ----------------------------------------------------------------

    7    -129.8394507089      6.72E-05 Convergence criterion met
    8    -129.8871249405      2.92E-06 Convergence criterion met
 Total energy in the final basis set = -129.88712494

                    Orbital Energies (a.u.)
 --------------------------------------------------------------

 Alpha MOs
 -- Occupied --
-19.3939 -14.5877  -1.3294  -0.7996  -0.6220  -0.5906  -0.5808  -0.3220

 Beta MOs
 -- Occupied --
-19.3850 -14.5731  -1.3061  -0.7592  -0.5796  -0.5555  -0.5456

                    Cartesian Multipole Moments
 -----------------------------------------------------------------
    Charge (ESU x 10^10)
                -0.0000
    Dipole Moment (Debye)
         X      -0.0000      Y      -0.0000      Z      -0.0036
       Tot       0.0036
    Quadrupole Moments (Debye-Ang)
        XX      -9.7440     XY      -0.0000     YY     -10.8678
        XZ      -0.0000     YZ       0.0000     ZZ     -11.3102

 Total job time:  4.33s(wall), 17.55s(cpu)
        *  Thank you very much for using Q-Chem.  Have a nice day.  *
