 Q-Chem 5.3 (devel), Q-Chem, Inc., Pleasanton, CA (2020)
 Q-Chem 5.3.0 for Intel X86 EM64T Linux

User input:
--------------------------------------------------------------
$rem
   JOBTYPE  sp
   EXCHANGE   omegaB97X-D
   BASIS   6-311+G(2df,2pd)
   UNRESTRICTED   True
   max_scf_cycles   250
   geom_opt_max_cycles   1500
   basis2 6-31G*
   scf_algorithm rca_diis
   SYM_IGNORE  TRUE
   print_input   true
   geom_opt_dmax   80
   pop_mulliken false
   XC_GRID 000075000302
$end

$molecule
0 2
N       0.0000000000     0.0000000000     -0.5628512452
O       0.0000000000     0.0000000000     0.4833432359
$end
--------------------------------------------------------------

             Standard Nuclear Orientation (Angstroms)
    I     Atom           X                Y                Z
 ----------------------------------------------------------------
    1      N       0.0000000000     0.0000000000    -0.5628512452
    2      O       0.0000000000     0.0000000000     0.4833432359
 ----------------------------------------------------------------

    8    -129.8104450226      4.47E-06 Convergence criterion met
    7    -129.8680212285      2.77E-06 Convergence criterion met
 Total energy in the final basis set = -129.86802123

                    Orbital Energies (a.u.)
 --------------------------------------------------------------

 Alpha MOs
 -- Occupied --
-19.3867 -14.5492  -1.4412  -0.7749  -0.6790  -0.6528  -0.5899  -0.2606

 Beta MOs
 -- Occupied --
-19.3771 -14.5362  -1.4201  -0.7394  -0.6412  -0.6062  -0.5602

                    Cartesian Multipole Moments
 -----------------------------------------------------------------
    Charge (ESU x 10^10)
                -0.0000
    Dipole Moment (Debye)
         X       0.0000      Y       0.0000      Z       0.4120
       Tot       0.4120
    Quadrupole Moments (Debye-Ang)
        XX      -9.4194     XY      -0.0000     YY     -10.6798
        XZ       0.0000     YZ      -0.0000     ZZ     -11.5190

 Total job time:  3.80s(wall), 16.52s(cpu)
        *  Thank you very much for using Q-Chem.  Have a nice day.  *
