 Q-Chem 5.3 (devel), Q-Chem, Inc., Pleasanton, CA (2020)
 Q-Chem 5.3.0 for Intel X86 EM64T Linux

User input:
--------------------------------------------------------------
$rem
   JOBTYPE  sp
   EXCHANGE   omegaB97X-D
   BASIS   6-311+G(2df,2pd)
   UNRESTRICTED   True
   max_scf_cycles   250
   geom_opt_max_cycles   1500
   basis2 6-31G*
   scf_algorithm rca_diis
   SYM_IGNORE  TRUE
   print_input   true
   geom_opt_dmax   80
   pop_mulliken false
   XC_GRID 000075000302
$end

$molecule
0 2
N       0.0000000000     0.0000000000     -0.7045070621
O       0.0000000000     0.0000000000     0.6249990528
$end
--------------------------------------------------------------

             Standard Nuclear Orientation (Angstroms)
    I     Atom           X                Y                Z
 ----------------------------------------------------------------
    1      N       0.0000000000     0.0000000000    -0.7045070621
    2      O       0.0000000000     0.0000000000     0.6249990528
 ----------------------------------------------------------------

   10    -129.7973359228      7.92E-05 Convergence criterion met
   12    -129.8426641480      2.21E-06 Convergence criterion met
 Total energy in the final basis set = -129.84266415

                    Orbital Energies (a.u.)
 --------------------------------------------------------------

 Alpha MOs
 -- Occupied --
-19.3963 -14.6204  -1.2386  -0.8291  -0.5798  -0.5676  -0.5429  -0.3669

 Beta MOs
 -- Occupied --
-19.3896 -14.6037  -1.2162  -0.7833  -0.5464  -0.5358  -0.5023

                    Cartesian Multipole Moments
 -----------------------------------------------------------------
    Charge (ESU x 10^10)
                 0.0000
    Dipole Moment (Debye)
         X       0.0000      Y       0.0000      Z      -0.3967
       Tot       0.3967
    Quadrupole Moments (Debye-Ang)
        XX     -11.0870     XY      -0.0000     YY     -10.0281
        XZ       0.0000     YZ      -0.0000     ZZ     -11.0719

 Total job time:  4.33s(wall), 21.08s(cpu)
        *  Thank you very much for using Q-Chem.  Have a nice day.  *
