 Q-Chem 5.3 (devel), Q-Chem, Inc., Pleasanton, CA (2020)
 Q-Chem 5.3.0 for Intel X86 EM64T Linux

User input:
--------------------------------------------------------------
$rem
   JOBTYPE  sp
   EXCHANGE   omegaB97X-D
   BASIS   6-311+G(2df,2pd)
   UNRESTRICTED   True
   max_scf_cycles   250
   geom_opt_max_cycles   1500
   basis2 6-31G*
   scf_algorithm rca_diis
   SYM_IGNORE  TRUE
   print_input   true
   geom_opt_dmax   80
   pop_mulliken false
   XC_GRID 000075000302
$end

$molecule
0 2
N       0.0000000000     0.0000000000     -0.5392419424
O       0.0000000000     0.0000000000     0.4597339331
$end
--------------------------------------------------------------

             Standard Nuclear Orientation (Angstroms)
    I     Atom           X                Y                Z
 ----------------------------------------------------------------
    1      N       0.0000000000     0.0000000000    -0.5392419424
    2      O       0.0000000000     0.0000000000     0.4597339331
 ----------------------------------------------------------------

    7    -129.7678604389      1.43E-05 Convergence criterion met
    7    -129.8322749410      3.86E-06 Convergence criterion met
 Total energy in the final basis set = -129.83227494

                    Orbital Energies (a.u.)
 --------------------------------------------------------------

 Alpha MOs
 -- Occupied --
-19.3841 -14.5368  -1.4829  -0.7690  -0.7028  -0.6785  -0.5925  -0.2362

 Beta MOs
 -- Occupied --
-19.3745 -14.5244  -1.4628  -0.7351  -0.6670  -0.6318  -0.5614

                    Cartesian Multipole Moments
 -----------------------------------------------------------------
    Charge (ESU x 10^10)
                 0.0000
    Dipole Moment (Debye)
         X       0.0000      Y      -0.0000      Z       0.5621
       Tot       0.5621
    Quadrupole Moments (Debye-Ang)
        XX      -9.3087     XY       0.0000     YY     -10.6531
        XZ      -0.0000     YZ       0.0000     ZZ     -11.5957

 Total job time:  4.12s(wall), 17.31s(cpu)
        *  Thank you very much for using Q-Chem.  Have a nice day.  *
