 Q-Chem 5.3 (devel), Q-Chem, Inc., Pleasanton, CA (2020)
 Q-Chem 5.3.0 for Intel X86 EM64T Linux

User input:
--------------------------------------------------------------
$rem
   JOBTYPE  sp
   EXCHANGE   omegaB97X-D
   BASIS   6-311+G(2df,2pd)
   UNRESTRICTED   False
   max_scf_cycles   250
   geom_opt_max_cycles   1500
   basis2 6-31G*
   scf_algorithm rca_diis
   SYM_IGNORE  TRUE
   print_input   true
   geom_opt_dmax   80
   pop_mulliken false
   XC_GRID 000075000302
$end

$molecule
0 1
C       1.3578819698     0.0000000431     0.3227930519
C       -0.1349988664     -0.0000000310     -0.5814905319
H       1.3952801601     -0.8697868841     0.9864376952
H       1.3952801104     0.8697869739     0.9864376946
H       2.2792021643     0.0000000430     -0.2605669902
C       -1.1873167789     -0.0000001940     0.1863904914
H       -0.2958818941     -0.8680237688     -1.2252359496
H       -0.2958817665     0.8680237380     -1.2252359077
H       -1.2284780901     -0.8906492825     0.8117418887
H       -2.0566089849     0.0000009273     -0.4719681709
H       -1.2284780844     0.8906491012     0.8117417473
$end
--------------------------------------------------------------

             Standard Nuclear Orientation (Angstroms)
    I     Atom           X                Y                Z
 ----------------------------------------------------------------
    1      C       1.3578819698     0.0000000431     0.3227930519
    2      C      -0.1349988664    -0.0000000310    -0.5814905319
    3      H       1.3952801601    -0.8697868841     0.9864376952
    4      H       1.3952801104     0.8697869739     0.9864376946
    5      H       2.2792021643     0.0000000430    -0.2605669902
    6      C      -1.1873167789    -0.0000001940     0.1863904914
    7      H      -0.2958818941    -0.8680237688    -1.2252359496
    8      H      -0.2958817665     0.8680237380    -1.2252359077
    9      H      -1.2284780901    -0.8906492825     0.8117418887
   10      H      -2.0566089849     0.0000009273    -0.4719681709
   11      H      -1.2284780844     0.8906491012     0.8117417473
 ----------------------------------------------------------------

    7    -119.0337656401      6.74E-06 Convergence criterion met
    6    -119.0796496483      5.18E-06 Convergence criterion met
 Total energy in the final basis set = -119.07964965

                    Orbital Energies (a.u.)
 --------------------------------------------------------------

 Alpha MOs
 -- Occupied --
-10.2792 -10.2717 -10.2483  -0.9154  -0.7742  -0.6679  -0.5646  -0.5395
 -0.4801  -0.4640  -0.4481  -0.3941  -0.3818

                    Cartesian Multipole Moments
 -----------------------------------------------------------------
    Charge (ESU x 10^10)
                 0.0000
    Dipole Moment (Debye)
         X      -0.1724      Y       0.0000      Z      -0.0802
       Tot       0.1901
    Quadrupole Moments (Debye-Ang)
        XX     -21.9459     XY      -0.0000     YY     -21.3615
        XZ       1.0295     YZ      -0.0000     ZZ     -21.9288

 Total job time:  26.93s(wall), 73.07s(cpu)
        *  Thank you very much for using Q-Chem.  Have a nice day.  *
