 Q-Chem 5.3 (devel), Q-Chem, Inc., Pleasanton, CA (2020)
 Q-Chem 5.3.0 for Intel X86 EM64T Linux

User input:
--------------------------------------------------------------
$rem
   JOBTYPE  sp
   EXCHANGE   omegaB97X-D
   BASIS   6-311+G(2df,2pd)
   UNRESTRICTED   False
   max_scf_cycles   250
   geom_opt_max_cycles   1500
   basis2 6-31G*
   scf_algorithm rca_diis
   SYM_IGNORE  TRUE
   print_input   true
   geom_opt_dmax   80
   pop_mulliken false
   XC_GRID 000075000302
$end

$molecule
0 1
C       1.2646310046     0.0807080087     0.2601322073
C       0.0000000810     -0.0000015836     -0.5865765356
H       1.1590419882     -0.4951976315     1.1823126937
H       1.4749965409     1.1142917117     0.5404338585
H       2.1329767823     -0.3025833050     -0.2766971831
C       -1.2646310432     -0.0807063711     0.2601323331
H       0.0402887578     -0.8729680451     -1.2423685969
H       -0.0402883568     0.8729608131     -1.2423738935
H       -1.4750035025     -1.1142902880     0.5404284145
H       -2.1329746867     0.3025936606     -0.2766942707
H       -1.1590376263     0.4951936961     1.1823159916
$end
--------------------------------------------------------------

             Standard Nuclear Orientation (Angstroms)
    I     Atom           X                Y                Z
 ----------------------------------------------------------------
    1      C       1.2646310046     0.0807080087     0.2601322073
    2      C       0.0000000810    -0.0000015836    -0.5865765356
    3      H       1.1590419882    -0.4951976315     1.1823126937
    4      H       1.4749965409     1.1142917117     0.5404338585
    5      H       2.1329767823    -0.3025833050    -0.2766971831
    6      C      -1.2646310432    -0.0807063711     0.2601323331
    7      H       0.0402887578    -0.8729680451    -1.2423685969
    8      H      -0.0402883568     0.8729608131    -1.2423738935
    9      H      -1.4750035025    -1.1142902880     0.5404284145
   10      H      -2.1329746867     0.3025936606    -0.2766942707
   11      H      -1.1590376263     0.4951936961     1.1823159916
 ----------------------------------------------------------------

    7    -119.0991118419      4.44E-06 Convergence criterion met
    6    -119.1421491447      3.93E-06 Convergence criterion met
 Total energy in the final basis set = -119.14214914

                    Orbital Energies (a.u.)
 --------------------------------------------------------------

 Alpha MOs
 -- Occupied --
-10.2729 -10.2646 -10.2646  -0.8811  -0.7769  -0.6775  -0.5449  -0.5251
 -0.4805  -0.4673  -0.4186  -0.4169  -0.4031

                    Cartesian Multipole Moments
 -----------------------------------------------------------------
    Charge (ESU x 10^10)
                 0.0000
    Dipole Moment (Debye)
         X      -0.0000      Y      -0.0000      Z      -0.0837
       Tot       0.0837
    Quadrupole Moments (Debye-Ang)
        XX     -22.2299     XY      -0.0559     YY     -21.2999
        XZ       0.0000     YZ      -0.0000     ZZ     -21.8598

 Total job time:  27.16s(wall), 73.88s(cpu)
        *  Thank you very much for using Q-Chem.  Have a nice day.  *
