 Q-Chem 5.3 (devel), Q-Chem, Inc., Pleasanton, CA (2020)
 Q-Chem 5.3.0 for Intel X86 EM64T Linux

User input:
--------------------------------------------------------------
$rem
   JOBTYPE  sp
   EXCHANGE   omegaB97X-D
   BASIS   6-311+G(2df,2pd)
   UNRESTRICTED   False
   max_scf_cycles   250
   geom_opt_max_cycles   1500
   basis2 6-31G*
   scf_algorithm rca_diis
   SYM_IGNORE  TRUE
   print_input   true
   geom_opt_dmax   80
   pop_mulliken false
   XC_GRID 000075000302
$end

$molecule
0 1
C       1.2760458153     0.0000001217     0.1833908292
C       -0.0000000649     -0.0000001798     -0.5453016177
H       1.1609469161     -0.8435872575     0.8702574518
H       1.1609472615     0.8435874557     0.8702575429
H       2.2611165310     -0.0000001766     -0.2734270873
C       -1.2760457312     0.0000000955     0.1833906362
H       0.0000002113     -0.8677453844     -1.2073054964
H       -0.0000001567     0.8677452710     -1.2073051725
H       -1.1609470056     -0.8435872728     0.8702572904
H       -2.2611167079     0.0000006566     -0.2734268692
H       -1.1609471294     0.8435873365     0.8702575115
$end
--------------------------------------------------------------

             Standard Nuclear Orientation (Angstroms)
    I     Atom           X                Y                Z
 ----------------------------------------------------------------
    1      C       1.2760458153     0.0000001217     0.1833908292
    2      C      -0.0000000649    -0.0000001798    -0.5453016177
    3      H       1.1609469161    -0.8435872575     0.8702574518
    4      H       1.1609472615     0.8435874557     0.8702575429
    5      H       2.2611165310    -0.0000001766    -0.2734270873
    6      C      -1.2760457312     0.0000000955     0.1833906362
    7      H       0.0000002113    -0.8677453844    -1.2073054964
    8      H      -0.0000001567     0.8677452710    -1.2073051725
    9      H      -1.1609470056    -0.8435872728     0.8702572904
   10      H      -2.2611167079     0.0000006566    -0.2734268692
   11      H      -1.1609471294     0.8435873365     0.8702575115
 ----------------------------------------------------------------

    7    -119.0757167810      4.52E-06 Convergence criterion met
    6    -119.1203211187      4.15E-06 Convergence criterion met
 Total energy in the final basis set = -119.12032112

                    Orbital Energies (a.u.)
 --------------------------------------------------------------

 Alpha MOs
 -- Occupied --
-10.2664 -10.2655 -10.2655  -0.9017  -0.7864  -0.6748  -0.5555  -0.5481
 -0.4777  -0.4657  -0.4526  -0.3942  -0.3889

                    Cartesian Multipole Moments
 -----------------------------------------------------------------
    Charge (ESU x 10^10)
                 0.0000
    Dipole Moment (Debye)
         X      -0.0000      Y       0.0000      Z      -0.0308
       Tot       0.0308
    Quadrupole Moments (Debye-Ang)
        XX     -21.0632     XY      -0.0000     YY     -21.8519
        XZ      -0.0000     YZ       0.0000     ZZ     -22.5528

 Total job time:  27.83s(wall), 75.73s(cpu)
        *  Thank you very much for using Q-Chem.  Have a nice day.  *
