 Q-Chem 5.3 (devel), Q-Chem, Inc., Pleasanton, CA (2020)
 Q-Chem 5.3.0 for Intel X86 EM64T Linux

User input:
--------------------------------------------------------------
$rem
   JOBTYPE  sp
   EXCHANGE   omegaB97X-D
   BASIS   6-311+G(2df,2pd)
   max_scf_cycles   250
   geom_opt_max_cycles   1500
   basis2 6-31G*
   scf_algorithm rca_diis
   SYM_IGNORE  TRUE
   print_input   true
   geom_opt_dmax   80
   pop_mulliken false
   XC_GRID 000075000302
$end

$molecule
0 1
C       1.2363036657     0.1136270064     0.2595249037
C       -0.0000000134     0.2014687693     -0.6273561871
H       1.0485832405     -0.8887803731     0.6575361835
H       1.4464600775     0.7825392485     1.0927628164
H       2.1346912063     -0.0045540031     -0.3471508483
C       -1.2363037351     0.1136280468     0.2595247610
H       -0.0000007651     -0.8897603207     -0.7554846999
H       0.0000005664     0.6826263951     -1.6014599761
H       -1.0485821212     -0.8887791712     0.6575361491
H       -2.1346911693     -0.0045547404     -0.3471508380
H       -1.4464610129     0.7825398085     1.0927627546
$end
--------------------------------------------------------------

             Standard Nuclear Orientation (Angstroms)
    I     Atom           X                Y                Z
 ----------------------------------------------------------------
    1      C       1.2363036657     0.1136270064     0.2595249037
    2      C      -0.0000000134     0.2014687693    -0.6273561871
    3      H       1.0485832405    -0.8887803731     0.6575361835
    4      H       1.4464600775     0.7825392485     1.0927628164
    5      H       2.1346912063    -0.0045540031    -0.3471508483
    6      C      -1.2363037351     0.1136280468     0.2595247610
    7      H      -0.0000007651    -0.8897603207    -0.7554846999
    8      H       0.0000005664     0.6826263951    -1.6014599761
    9      H      -1.0485821212    -0.8887791712     0.6575361491
   10      H      -2.1346911693    -0.0045547404    -0.3471508380
   11      H      -1.4464610129     0.7825398085     1.0927627546
 ----------------------------------------------------------------

    7    -119.0502721954      5.74E-06 Convergence criterion met
    6    -119.0955209016      3.70E-06 Convergence criterion met
 Total energy in the final basis set = -119.09552090

                    Orbital Energies (a.u.)
 --------------------------------------------------------------

 Alpha MOs
 -- Occupied --
-10.2770 -10.2681 -10.2681  -0.8985  -0.7779  -0.6747  -0.5666  -0.5202
 -0.4946  -0.4500  -0.4318  -0.4106  -0.3809

                    Cartesian Multipole Moments
 -----------------------------------------------------------------
    Charge (ESU x 10^10)
                -0.0000
    Dipole Moment (Debye)
         X       0.0000      Y      -0.2815      Z      -0.1338
       Tot       0.3117
    Quadrupole Moments (Debye-Ang)
        XX     -22.3103     XY       0.0000     YY     -21.7733
        XZ      -0.0000     YZ       0.0978     ZZ     -21.6619

 Total job time:  27.19s(wall), 74.17s(cpu)
        *  Thank you very much for using Q-Chem.  Have a nice day.  *
