 Q-Chem 5.3 (devel), Q-Chem, Inc., Pleasanton, CA (2020)
 Q-Chem 5.3.0 for Intel X86 EM64T Linux

User input:
--------------------------------------------------------------
$rem
   JOBTYPE  sp
   EXCHANGE   omegaB97X-D
   BASIS   6-311+G(2df,2pd)
   UNRESTRICTED   False
   max_scf_cycles   250
   geom_opt_max_cycles   1500
   basis2 6-31G*
   scf_algorithm rca_diis
   SYM_IGNORE  TRUE
   print_input   true
   geom_opt_dmax   80
   pop_mulliken false
   XC_GRID 000075000302
$end

$molecule
0 1
C       1.2669094228     0.0524531614     0.2503254728
C       -0.0000001261     -0.1853158591     -0.5627719781
H       1.6644494915     -0.8673994235     0.6820076131
H       1.0448127562     0.7339797504     1.0749647859
H       2.0527781708     0.5067935435     -0.3539158496
C       -1.2669093502     0.0524561328     0.2503249401
H       -0.0000010763     -1.1847678104     -1.0046312849
H       0.0000007960     0.5184168051     -1.3983137439
H       -1.6644425473     -0.8673945256     0.6820177924
H       -2.0527819135     0.5067858011     -0.3539193584
H       -1.0448156844     0.7339930904     1.0749566295
$end
--------------------------------------------------------------

             Standard Nuclear Orientation (Angstroms)
    I     Atom           X                Y                Z
 ----------------------------------------------------------------
    1      C       1.2669094228     0.0524531614     0.2503254728
    2      C      -0.0000001261    -0.1853158591    -0.5627719781
    3      H       1.6644494915    -0.8673994235     0.6820076131
    4      H       1.0448127562     0.7339797504     1.0749647859
    5      H       2.0527781708     0.5067935435    -0.3539158496
    6      C      -1.2669093502     0.0524561328     0.2503249401
    7      H      -0.0000010763    -1.1847678104    -1.0046312849
    8      H       0.0000007960     0.5184168051    -1.3983137439
    9      H      -1.6644425473    -0.8673945256     0.6820177924
   10      H      -2.0527819135     0.5067858011    -0.3539193584
   11      H      -1.0448156844     0.7339930904     1.0749566295
 ----------------------------------------------------------------

    7    -119.0952504604      4.26E-06 Convergence criterion met
    6    -119.1385344467      3.98E-06 Convergence criterion met
 Total energy in the final basis set = -119.13853445

                    Orbital Energies (a.u.)
 --------------------------------------------------------------

 Alpha MOs
 -- Occupied --
-10.2725 -10.2640 -10.2640  -0.8815  -0.7762  -0.6782  -0.5450  -0.5281
 -0.4782  -0.4652  -0.4204  -0.4163  -0.4013

                    Cartesian Multipole Moments
 -----------------------------------------------------------------
    Charge (ESU x 10^10)
                 0.0000
    Dipole Moment (Debye)
         X      -0.0000      Y      -0.0100      Z      -0.0888
       Tot       0.0894
    Quadrupole Moments (Debye-Ang)
        XX     -22.2829     XY      -0.0000     YY     -21.2977
        XZ      -0.0000     YZ      -0.1557     ZZ     -21.8427

 Total job time:  27.18s(wall), 73.86s(cpu)
        *  Thank you very much for using Q-Chem.  Have a nice day.  *
