 Q-Chem 5.3 (devel), Q-Chem, Inc., Pleasanton, CA (2020)
 Q-Chem 5.3.0 for Intel X86 EM64T Linux

User input:
--------------------------------------------------------------
$rem
   JOBTYPE  sp
   EXCHANGE   omegaB97X-D
   BASIS   6-311+G(2df,2pd)
   UNRESTRICTED   False
   max_scf_cycles   250
   geom_opt_max_cycles   1500
   basis2 6-31G*
   scf_algorithm rca_diis
   SYM_IGNORE  TRUE
   print_input   true
   geom_opt_dmax   80
   pop_mulliken false
   XC_GRID 000075000302
$end

$molecule
0 1
C       1.4165570995     0.0000002303     0.2561650549
C       -0.0000000044     -0.0000000068     -0.7902577448
H       1.2885296535     -0.8586872815     0.9213813887
H       1.2885304152     0.8586871227     0.9213823070
H       2.4518023948     -0.0000002187     -0.0906965973
C       -1.4165573192     -0.0000003379     0.2561649395
H       0.0000011180     -0.8761783601     -1.4425811010
H       -0.0000005126     0.8761785450     -1.4425808339
H       -1.2885303817     -0.8586868382     0.9213826396
H       -2.4518027586     0.0000006627     -0.0906962544
H       -1.2885297652     0.8586871486     0.9213812205
$end
--------------------------------------------------------------

             Standard Nuclear Orientation (Angstroms)
    I     Atom           X                Y                Z
 ----------------------------------------------------------------
    1      C       1.4165570995     0.0000002303     0.2561650549
    2      C      -0.0000000044    -0.0000000068    -0.7902577448
    3      H       1.2885296535    -0.8586872815     0.9213813887
    4      H       1.2885304152     0.8586871227     0.9213823070
    5      H       2.4518023948    -0.0000002187    -0.0906965973
    6      C      -1.4165573192    -0.0000003379     0.2561649395
    7      H       0.0000011180    -0.8761783601    -1.4425811010
    8      H      -0.0000005126     0.8761785450    -1.4425808339
    9      H      -1.2885303817    -0.8586868382     0.9213826396
   10      H      -2.4518027586     0.0000006627    -0.0906962544
   11      H      -1.2885297652     0.8586871486     0.9213812205
 ----------------------------------------------------------------

    7    -119.0520370395      3.98E-06 Convergence criterion met
    5    -119.0947456806      8.05E-06 Convergence criterion met
 Total energy in the final basis set = -119.09474568

                    Orbital Energies (a.u.)
 --------------------------------------------------------------

 Alpha MOs
 -- Occupied --
-10.3115 -10.2839 -10.2839  -0.8324  -0.7677  -0.6990  -0.5177  -0.5099
 -0.4648  -0.4571  -0.4280  -0.4082  -0.4065

                    Cartesian Multipole Moments
 -----------------------------------------------------------------
    Charge (ESU x 10^10)
                -0.0000
    Dipole Moment (Debye)
         X       0.0000      Y       0.0000      Z       0.0935
       Tot       0.0935
    Quadrupole Moments (Debye-Ang)
        XX     -21.1180     XY      -0.0000     YY     -21.9151
        XZ      -0.0000     YZ      -0.0000     ZZ     -21.8749

 Total job time:  24.77s(wall), 66.77s(cpu)
        *  Thank you very much for using Q-Chem.  Have a nice day.  *
