 Q-Chem 5.3 (devel), Q-Chem, Inc., Pleasanton, CA (2020)
 Q-Chem 5.3.0 for Intel X86 EM64T Linux

User input:
--------------------------------------------------------------
$rem
   JOBTYPE  sp
   EXCHANGE   omegaB97X-D
   BASIS   6-311+G(2df,2pd)
   max_scf_cycles   250
   geom_opt_max_cycles   1500
   basis2 6-31G*
   scf_algorithm rca_diis
   SYM_IGNORE  TRUE
   print_input   true
   geom_opt_dmax   80
   pop_mulliken false
   XC_GRID 000075000302
$end

$molecule
0 1
C       1.2553879695     -0.0706970781     0.2595697355
C       -0.0000000093     -0.1253691608     -0.6028295705
H       1.4065060683     -0.8310076417     1.0260527197
H       1.1592706381     0.8966150684     0.7605890248
H       2.1536694715     -0.0003857414     -0.3546525693
C       -1.2553879855     -0.0706976108     0.2595698879
H       0.0000003925     -0.7741239553     -1.4773839348
H       -0.0000006148     0.9104445131     -0.9618592997
H       -1.4065067085     -0.8310080290     1.0260527786
H       -2.1536691914     -0.0003844124     -0.3546526158
H       -1.1592700910     0.8966147139     0.7605888626
$end
--------------------------------------------------------------

             Standard Nuclear Orientation (Angstroms)
    I     Atom           X                Y                Z
 ----------------------------------------------------------------
    1      C       1.2553879695    -0.0706970781     0.2595697355
    2      C      -0.0000000093    -0.1253691608    -0.6028295705
    3      H       1.4065060683    -0.8310076417     1.0260527197
    4      H       1.1592706381     0.8966150684     0.7605890248
    5      H       2.1536694715    -0.0003857414    -0.3546525693
    6      C      -1.2553879855    -0.0706976108     0.2595698879
    7      H       0.0000003925    -0.7741239553    -1.4773839348
    8      H      -0.0000006148     0.9104445131    -0.9618592997
    9      H      -1.4065067085    -0.8310080290     1.0260527786
   10      H      -2.1536691914    -0.0003844124    -0.3546526158
   11      H      -1.1592700910     0.8966147139     0.7605888626
 ----------------------------------------------------------------

    7    -119.0860349135      4.73E-06 Convergence criterion met
    6    -119.1295520317      3.79E-06 Convergence criterion met
 Total energy in the final basis set = -119.12955203

                    Orbital Energies (a.u.)
 --------------------------------------------------------------

 Alpha MOs
 -- Occupied --
-10.2754 -10.2661 -10.2661  -0.8870  -0.7773  -0.6766  -0.5537  -0.5218
 -0.4880  -0.4575  -0.4239  -0.4155  -0.3978

                    Cartesian Multipole Moments
 -----------------------------------------------------------------
    Charge (ESU x 10^10)
                -0.0000
    Dipole Moment (Debye)
         X      -0.0000      Y       0.1705      Z      -0.1016
       Tot       0.1985
    Quadrupole Moments (Debye-Ang)
        XX     -22.2234     XY      -0.0000     YY     -21.5074
        XZ      -0.0000     YZ      -0.0497     ZZ     -21.7814

 Total job time:  26.92s(wall), 73.55s(cpu)
        *  Thank you very much for using Q-Chem.  Have a nice day.  *
