 Q-Chem 5.3 (devel), Q-Chem, Inc., Pleasanton, CA (2020)
 Q-Chem 5.3.0 for Intel X86 EM64T Linux

User input:
--------------------------------------------------------------
$rem
   JOBTYPE  sp
   EXCHANGE   omegaB97X-D
   BASIS   6-311+G(2df,2pd)
   UNRESTRICTED   False
   max_scf_cycles   250
   geom_opt_max_cycles   1500
   basis2 6-31G*
   scf_algorithm rca_diis
   SYM_IGNORE  TRUE
   print_input   true
   geom_opt_dmax   80
   pop_mulliken false
   XC_GRID 000075000302
$end

$molecule
0 1
C       1.2672042126     0.0000000000     0.2594997522
C       0.0000000000     0.0000000000     -0.5872081259
H       1.3052750505     -0.8806643351     0.9038259677
H       1.3052750505     0.8806643351     0.9038259677
H       2.1646165232     0.0000000000     -0.3599948239
C       -1.2672042126     -0.0000000181     0.2594997522
H       0.0000000000     -0.8738729764     -1.2430302913
H       -0.0000000606     0.8738729764     -1.2430302913
H       -1.3052750505     -0.8806643351     0.9038259677
H       -2.1646165232     0.0000006841     -0.3599948239
H       -1.3052750505     0.8806643351     0.9038259677
$end
--------------------------------------------------------------

             Standard Nuclear Orientation (Angstroms)
    I     Atom           X                Y                Z
 ----------------------------------------------------------------
    1      C       1.2672042126     0.0000000000     0.2594997522
    2      C       0.0000000000     0.0000000000    -0.5872081259
    3      H       1.3052750505    -0.8806643351     0.9038259677
    4      H       1.3052750505     0.8806643351     0.9038259677
    5      H       2.1646165232     0.0000000000    -0.3599948239
    6      C      -1.2672042126    -0.0000000181     0.2594997522
    7      H       0.0000000000    -0.8738729764    -1.2430302913
    8      H      -0.0000000606     0.8738729764    -1.2430302913
    9      H      -1.3052750505    -0.8806643351     0.9038259677
   10      H      -2.1646165232     0.0000006841    -0.3599948239
   11      H      -1.3052750505     0.8806643351     0.9038259677
 ----------------------------------------------------------------

    7    -119.1031584577      4.51E-06 Convergence criterion met
    6    -119.1460757478      3.87E-06 Convergence criterion met
 Total energy in the final basis set = -119.14607575

                    Orbital Energies (a.u.)
 --------------------------------------------------------------

 Alpha MOs
 -- Occupied --
-10.2740 -10.2651 -10.2651  -0.8811  -0.7771  -0.6777  -0.5457  -0.5242
 -0.4826  -0.4636  -0.4187  -0.4177  -0.4075

                    Cartesian Multipole Moments
 -----------------------------------------------------------------
    Charge (ESU x 10^10)
                -0.0000
    Dipole Moment (Debye)
         X       0.0000      Y       0.0000      Z      -0.0857
       Tot       0.0857
    Quadrupole Moments (Debye-Ang)
        XX     -22.1671     XY      -0.0000     YY     -21.3624
        XZ       0.0000     YZ      -0.0000     ZZ     -21.8413

 Total job time:  28.38s(wall), 76.42s(cpu)
        *  Thank you very much for using Q-Chem.  Have a nice day.  *
