 Q-Chem 5.3 (devel), Q-Chem, Inc., Pleasanton, CA (2020)
 Q-Chem 5.3.0 for Intel X86 EM64T Linux

User input:
--------------------------------------------------------------
$rem
   JOBTYPE  sp
   EXCHANGE   omegaB97X-D
   BASIS   6-311+G(2df,2pd)
   max_scf_cycles   250
   geom_opt_max_cycles   1500
   basis2 6-31G*
   scf_algorithm rca_diis
   SYM_IGNORE  TRUE
   print_input   true
   geom_opt_dmax   80
   pop_mulliken false
   XC_GRID 000075000302
$end

$molecule
0 1
C       1.2487315163     -0.2155378202     0.2632681084
C       0.0000003987     0.0000049248     -0.5834500834
H       1.7702358587     -1.1183673121     -0.0565235584
H       1.0011374815     -0.3356506671     1.3212329229
H       1.9444030555     0.6193736207     0.1733442595
C       -1.2487313433     0.2155342147     0.2632707160
H       -0.1082070540     -0.8672837609     -1.2390854562
H       0.1082079867     0.8673043332     -1.2390716221
H       -1.0011363634     0.3356677643     1.3212326256
H       -1.9443861246     -0.6193925329     0.1733590519
H       -1.7702554728     1.1183479014     -0.0565319453
$end
--------------------------------------------------------------

             Standard Nuclear Orientation (Angstroms)
    I     Atom           X                Y                Z
 ----------------------------------------------------------------
    1      C       1.2487315163    -0.2155378202     0.2632681084
    2      C       0.0000003987     0.0000049248    -0.5834500834
    3      H       1.7702358587    -1.1183673121    -0.0565235584
    4      H       1.0011374815    -0.3356506671     1.3212329229
    5      H       1.9444030555     0.6193736207     0.1733442595
    6      C      -1.2487313433     0.2155342147     0.2632707160
    7      H      -0.1082070540    -0.8672837609    -1.2390854562
    8      H       0.1082079867     0.8673043332    -1.2390716221
    9      H      -1.0011363634     0.3356677643     1.3212326256
   10      H      -1.9443861246    -0.6193925329     0.1733590519
   11      H      -1.7702554728     1.1183479014    -0.0565319453
 ----------------------------------------------------------------

    7    -119.0912543688      4.21E-06 Convergence criterion met
    6    -119.1346453780      3.94E-06 Convergence criterion met
 Total energy in the final basis set = -119.13464538

                    Orbital Energies (a.u.)
 --------------------------------------------------------------

 Alpha MOs
 -- Occupied --
-10.2714 -10.2632 -10.2632  -0.8809  -0.7763  -0.6775  -0.5445  -0.5271
 -0.4763  -0.4706  -0.4222  -0.4114  -0.3979

                    Cartesian Multipole Moments
 -----------------------------------------------------------------
    Charge (ESU x 10^10)
                -0.0000
    Dipole Moment (Debye)
         X      -0.0000      Y       0.0000      Z      -0.0957
       Tot       0.0957
    Quadrupole Moments (Debye-Ang)
        XX     -22.4253     XY       0.1478     YY     -21.2200
        XZ       0.0000     YZ       0.0000     ZZ     -21.8047

 Total job time:  27.86s(wall), 75.30s(cpu)
        *  Thank you very much for using Q-Chem.  Have a nice day.  *
