 Q-Chem 5.3 (devel), Q-Chem, Inc., Pleasanton, CA (2020)
 Q-Chem 5.3.0 for Intel X86 EM64T Linux

User input:
--------------------------------------------------------------
$rem
   JOBTYPE  sp
   EXCHANGE   omegaB97X-D
   BASIS   6-311+G(2df,2pd)
   UNRESTRICTED   False
   max_scf_cycles   250
   geom_opt_max_cycles   1500
   basis2 6-31G*
   scf_algorithm rca_diis
   SYM_IGNORE  TRUE
   print_input   true
   geom_opt_dmax   80
   pop_mulliken false
   XC_GRID 000075000302
$end

$molecule
0 1
C       1.2669186136     -0.0268905622     0.2595717705
C       0.0000000001     0.0000006166     -0.5871363958
H       1.3599034497     -0.9772020745     0.7888020269
H       1.2532684661     0.7670174361     1.0092728189
H       2.1610915347     0.1045133672     -0.3506004752
C       -1.2669185903     0.0268900489     0.2595718713
H       -0.0134137988     -0.8737710361     -1.2429563470
H       0.0134136781     0.8737735518     -1.2429546837
H       -1.2532664669     -0.7670165057     1.0092743324
H       -2.1610911760     -0.1045164155     -0.3506003240
H       -1.3599057709     0.9772022395     0.7888004246
$end
--------------------------------------------------------------

             Standard Nuclear Orientation (Angstroms)
    I     Atom           X                Y                Z
 ----------------------------------------------------------------
    1      C       1.2669186136    -0.0268905622     0.2595717705
    2      C       0.0000000001     0.0000006166    -0.5871363958
    3      H       1.3599034497    -0.9772020745     0.7888020269
    4      H       1.2532684661     0.7670174361     1.0092728189
    5      H       2.1610915347     0.1045133672    -0.3506004752
    6      C      -1.2669185903     0.0268900489     0.2595718713
    7      H      -0.0134137988    -0.8737710361    -1.2429563470
    8      H       0.0134136781     0.8737735518    -1.2429546837
    9      H      -1.2532664669    -0.7670165057     1.0092743324
   10      H      -2.1610911760    -0.1045164155    -0.3506003240
   11      H      -1.3599057709     0.9772022395     0.7888004246
 ----------------------------------------------------------------

    7    -119.1026591654      4.50E-06 Convergence criterion met
    6    -119.1455816754      3.88E-06 Convergence criterion met
 Total energy in the final basis set = -119.14558168

                    Orbital Energies (a.u.)
 --------------------------------------------------------------

 Alpha MOs
 -- Occupied --
-10.2739 -10.2651 -10.2651  -0.8811  -0.7771  -0.6777  -0.5456  -0.5243
 -0.4824  -0.4641  -0.4185  -0.4178  -0.4069

                    Cartesian Multipole Moments
 -----------------------------------------------------------------
    Charge (ESU x 10^10)
                -0.0000
    Dipole Moment (Debye)
         X      -0.0000      Y       0.0000      Z      -0.0856
       Tot       0.0856
    Quadrupole Moments (Debye-Ang)
        XX     -22.1720     XY       0.0217     YY     -21.3533
        XZ       0.0000     YZ      -0.0000     ZZ     -21.8463

 Total job time:  27.77s(wall), 75.11s(cpu)
        *  Thank you very much for using Q-Chem.  Have a nice day.  *
