 Q-Chem 5.3 (devel), Q-Chem, Inc., Pleasanton, CA (2020)
 Q-Chem 5.3.0 for Intel X86 EM64T Linux

User input:
--------------------------------------------------------------
$rem
   JOBTYPE  sp
   EXCHANGE   omegaB97X-D
   BASIS   6-311+G(2df,2pd)
   UNRESTRICTED   False
   max_scf_cycles   250
   geom_opt_max_cycles   1500
   basis2 6-31G*
   scf_algorithm rca_diis
   SYM_IGNORE  TRUE
   print_input   true
   geom_opt_dmax   80
   pop_mulliken false
   XC_GRID 000075000302
$end

$molecule
0 1
C       1.2023306757     -0.0000000349     0.2017611669
C       0.1079726209     0.0000000108     -0.5835387359
H       1.2426444246     -0.8887220878     0.8308822158
H       1.2426444597     0.8887220063     0.8308822289
H       2.0776488322     -0.0000000259     -0.4485668628
C       -1.3390148150     0.0000001281     0.3109269561
H       0.2371999207     -0.8701156512     -1.2315786327
H       0.2371997037     0.8701156773     -1.2315786951
H       -1.3764033385     -0.8720351531     0.9706784698
H       -2.2558191890     0.0000005022     -0.2795016840
H       -1.3764033555     0.8720352942     0.9706785919
$end
--------------------------------------------------------------

             Standard Nuclear Orientation (Angstroms)
    I     Atom           X                Y                Z
 ----------------------------------------------------------------
    1      C       1.2023306757    -0.0000000349     0.2017611669
    2      C       0.1079726209     0.0000000108    -0.5835387359
    3      H       1.2426444246    -0.8887220878     0.8308822158
    4      H       1.2426444597     0.8887220063     0.8308822289
    5      H       2.0776488322    -0.0000000259    -0.4485668628
    6      C      -1.3390148150     0.0000001281     0.3109269561
    7      H       0.2371999207    -0.8701156512    -1.2315786327
    8      H       0.2371997037     0.8701156773    -1.2315786951
    9      H      -1.3764033385    -0.8720351531     0.9706784698
   10      H      -2.2558191890     0.0000005022    -0.2795016840
   11      H      -1.3764033555     0.8720352942     0.9706785919
 ----------------------------------------------------------------

    7    -119.0600414980      5.83E-06 Convergence criterion met
    6    -119.1047861435      4.95E-06 Convergence criterion met
 Total energy in the final basis set = -119.10478614

                    Orbital Energies (a.u.)
 --------------------------------------------------------------

 Alpha MOs
 -- Occupied --
-10.2770 -10.2724 -10.2514  -0.9036  -0.7751  -0.6711  -0.5578  -0.5340
 -0.4809  -0.4641  -0.4428  -0.3987  -0.3896

                    Cartesian Multipole Moments
 -----------------------------------------------------------------
    Charge (ESU x 10^10)
                -0.0000
    Dipole Moment (Debye)
         X       0.1234      Y       0.0000      Z      -0.0797
       Tot       0.1469
    Quadrupole Moments (Debye-Ang)
        XX     -22.0219     XY      -0.0000     YY     -21.3615
        XZ      -0.8275     YZ      -0.0000     ZZ     -21.8985

 Total job time:  27.71s(wall), 74.79s(cpu)
        *  Thank you very much for using Q-Chem.  Have a nice day.  *
