 Q-Chem 5.3 (devel), Q-Chem, Inc., Pleasanton, CA (2020)
 Q-Chem 5.3.0 for Intel X86 EM64T Linux

User input:
--------------------------------------------------------------
$rem
   JOBTYPE  sp
   EXCHANGE   omegaB97X-D
   BASIS   6-311+G(2df,2pd)
   max_scf_cycles   250
   geom_opt_max_cycles   1500
   basis2 6-31G*
   scf_algorithm rca_diis
   SYM_IGNORE  TRUE
   print_input   true
   geom_opt_dmax   80
   pop_mulliken false
   XC_GRID 000075000302
$end

$molecule
0 1
C       1.2667418119     -0.0655428527     0.2451805586
C       -0.0000001356     0.2295677293     -0.5491710890
H       1.0072789957     -0.6791690579     1.1114228322
H       1.7547881312     0.8369745875     0.6158445661
H       1.9933300749     -0.6205882274     -0.3490554508
C       -1.2667413721     -0.0655463551     0.2451806035
H       0.0000007117     -0.4255459370     -1.4233203235
H       -0.0000017141     1.2526458299     -0.9332462449
H       -1.0072818326     -0.6791871327     1.1114133154
H       -1.9933349954     -0.6205774370     -0.3490623480
H       -1.7547797361     0.8369695192     0.6158585994
$end
--------------------------------------------------------------

             Standard Nuclear Orientation (Angstroms)
    I     Atom           X                Y                Z
 ----------------------------------------------------------------
    1      C       1.2667418119    -0.0655428527     0.2451805586
    2      C      -0.0000001356     0.2295677293    -0.5491710890
    3      H       1.0072789957    -0.6791690579     1.1114228322
    4      H       1.7547881312     0.8369745875     0.6158445661
    5      H       1.9933300749    -0.6205882274    -0.3490554508
    6      C      -1.2667413721    -0.0655463551     0.2451806035
    7      H       0.0000007117    -0.4255459370    -1.4233203235
    8      H      -0.0000017141     1.2526458299    -0.9332462449
    9      H      -1.0072818326    -0.6791871327     1.1114133154
   10      H      -1.9933349954    -0.6205774370    -0.3490623480
   11      H      -1.7547797361     0.8369695192     0.6158585994
 ----------------------------------------------------------------

    7    -119.0925186601      4.19E-06 Convergence criterion met
    6    -119.1359378769      4.02E-06 Convergence criterion met
 Total energy in the final basis set = -119.13593788

                    Orbital Energies (a.u.)
 --------------------------------------------------------------

 Alpha MOs
 -- Occupied --
-10.2720 -10.2636 -10.2636  -0.8817  -0.7759  -0.6784  -0.5446  -0.5298
 -0.4762  -0.4662  -0.4206  -0.4158  -0.3996

                    Cartesian Multipole Moments
 -----------------------------------------------------------------
    Charge (ESU x 10^10)
                 0.0000
    Dipole Moment (Debye)
         X      -0.0000      Y       0.0115      Z      -0.0895
       Tot       0.0902
    Quadrupole Moments (Debye-Ang)
        XX     -22.3117     XY      -0.0000     YY     -21.2878
        XZ      -0.0000     YZ       0.2062     ZZ     -21.8433

 Total job time:  27.41s(wall), 74.50s(cpu)
        *  Thank you very much for using Q-Chem.  Have a nice day.  *
