 Q-Chem 5.3 (devel), Q-Chem, Inc., Pleasanton, CA (2020)
 Q-Chem 5.3.0 for Intel X86 EM64T Linux

User input:
--------------------------------------------------------------
$rem
   JOBTYPE  sp
   EXCHANGE   omegaB97X-D
   BASIS   6-311+G(2df,2pd)
   max_scf_cycles   250
   geom_opt_max_cycles   1500
   basis2 6-31G*
   scf_algorithm rca_diis
   SYM_IGNORE  TRUE
   print_input   true
   geom_opt_dmax   80
   pop_mulliken false
   XC_GRID 000075000302
$end

$molecule
0 1
C       1.4486655935     -0.0000006013     0.2646089072
C       -0.0000001274     0.0000027213     -0.2782162614
H       1.7354068495     -0.8852690209     0.8336112261
H       1.7354125387     0.8852656994     0.8336116388
H       2.0433188863     -0.0000036926     -0.6530493210
C       -1.4486659139     0.0000007060     0.2646085865
H       0.0000007598     -0.8493210615     -0.9691530650
H       -0.0000003086     0.8493287687     -0.9691502983
H       -1.7354058859     -0.8852648789     0.8336159307
H       -2.0433195245     -0.0000078269     -0.6530491826
H       -1.7354129282     0.8852698526     0.8336068579
$end
--------------------------------------------------------------

             Standard Nuclear Orientation (Angstroms)
    I     Atom           X                Y                Z
 ----------------------------------------------------------------
    1      C       1.4486655935    -0.0000006013     0.2646089072
    2      C      -0.0000001274     0.0000027213    -0.2782162614
    3      H       1.7354068495    -0.8852690209     0.8336112261
    4      H       1.7354125387     0.8852656994     0.8336116388
    5      H       2.0433188863    -0.0000036926    -0.6530493210
    6      C      -1.4486659139     0.0000007060     0.2646085865
    7      H       0.0000007598    -0.8493210615    -0.9691530650
    8      H      -0.0000003086     0.8493287687    -0.9691502983
    9      H      -1.7354058859    -0.8852648789     0.8336159307
   10      H      -2.0433195245    -0.0000078269    -0.6530491826
   11      H      -1.7354129282     0.8852698526     0.8336068579
 ----------------------------------------------------------------

    7    -119.0796227183      4.13E-06 Convergence criterion met
    6    -119.1227753506      4.20E-06 Convergence criterion met
 Total energy in the final basis set = -119.12277535

                    Orbital Energies (a.u.)
 --------------------------------------------------------------

 Alpha MOs
 -- Occupied --
-10.2779 -10.2714 -10.2714  -0.8733  -0.7900  -0.6727  -0.5376  -0.5088
 -0.4975  -0.4744  -0.4280  -0.3995  -0.3954

                    Cartesian Multipole Moments
 -----------------------------------------------------------------
    Charge (ESU x 10^10)
                 0.0000
    Dipole Moment (Debye)
         X       0.0000      Y      -0.0000      Z      -0.2108
       Tot       0.2108
    Quadrupole Moments (Debye-Ang)
        XX     -21.8705     XY      -0.0000     YY     -21.4668
        XZ       0.0000     YZ       0.0000     ZZ     -21.7811

 Total job time:  25.31s(wall), 69.50s(cpu)
        *  Thank you very much for using Q-Chem.  Have a nice day.  *
