 Q-Chem 5.3 (devel), Q-Chem, Inc., Pleasanton, CA (2020)
 Q-Chem 5.3.0 for Intel X86 EM64T Linux

User input:
--------------------------------------------------------------
$rem
   JOBTYPE  sp
   EXCHANGE   omegaB97X-D
   BASIS   6-311+G(2df,2pd)
   UNRESTRICTED   False
   max_scf_cycles   250
   geom_opt_max_cycles   1500
   basis2 6-31G*
   scf_algorithm rca_diis
   SYM_IGNORE  TRUE
   print_input   true
   geom_opt_dmax   80
   pop_mulliken false
   XC_GRID 000075000302
$end

$molecule
0 1
C       1.2561667611     -0.0000000473     0.2305151890
C       -0.0000011926     -0.0000001926     -0.6053149669
H       1.3101808415     -1.0244461141     0.9879394197
H       1.3101806753     1.0244458958     0.9879393922
H       2.2871925640     0.0000000294     -0.4658585626
C       -1.2561695770     -0.0000004399     0.2305170446
H       -0.0000014651     -0.8799313647     -1.2673525156
H       -0.0000016419     0.8799314506     -1.2673527778
H       -1.3101815004     -1.0244323139     0.9879302736
H       -2.2871838175     0.0000004191     -0.4658489177
H       -1.3101817081     1.0244333436     0.9879314404
$end
--------------------------------------------------------------

             Standard Nuclear Orientation (Angstroms)
    I     Atom           X                Y                Z
 ----------------------------------------------------------------
    1      C       1.2561667611    -0.0000000473     0.2305151890
    2      C      -0.0000011926    -0.0000001926    -0.6053149669
    3      H       1.3101808415    -1.0244461141     0.9879394197
    4      H       1.3101806753     1.0244458958     0.9879393922
    5      H       2.2871925640     0.0000000294    -0.4658585626
    6      C      -1.2561695770    -0.0000004399     0.2305170446
    7      H      -0.0000014651    -0.8799313647    -1.2673525156
    8      H      -0.0000016419     0.8799314506    -1.2673527778
    9      H      -1.3101815004    -1.0244323139     0.9879302736
   10      H      -2.2871838175     0.0000004191    -0.4658489177
   11      H      -1.3101817081     1.0244333436     0.9879314404
 ----------------------------------------------------------------

    6    -119.0246520349      7.41E-05 Convergence criterion met
    5    -119.0646496819      8.94E-06 Convergence criterion met
 Total energy in the final basis set = -119.06464968

                    Orbital Energies (a.u.)
 --------------------------------------------------------------

 Alpha MOs
 -- Occupied --
-10.3197 -10.3197 -10.2862  -0.8802  -0.7442  -0.6535  -0.5382  -0.5127
 -0.4676  -0.4301  -0.4114  -0.4107  -0.3953

                    Cartesian Multipole Moments
 -----------------------------------------------------------------
    Charge (ESU x 10^10)
                 0.0000
    Dipole Moment (Debye)
         X      -0.0000      Y      -0.0000      Z      -0.4014
       Tot       0.4014
    Quadrupole Moments (Debye-Ang)
        XX     -23.4591     XY       0.0000     YY     -22.1003
        XZ      -0.0000     YZ      -0.0000     ZZ     -22.5458

 Total job time:  23.51s(wall), 63.15s(cpu)
        *  Thank you very much for using Q-Chem.  Have a nice day.  *
