 Q-Chem 5.3 (devel), Q-Chem, Inc., Pleasanton, CA (2020)
 Q-Chem 5.3.0 for Intel X86 EM64T Linux

User input:
--------------------------------------------------------------
$rem
   JOBTYPE  sp
   EXCHANGE   omegaB97X-D
   BASIS   6-311+G(2df,2pd)
   UNRESTRICTED   False
   max_scf_cycles   250
   geom_opt_max_cycles   1500
   basis2 6-31G*
   scf_algorithm rca_diis
   SYM_IGNORE  TRUE
   print_input   true
   geom_opt_dmax   80
   pop_mulliken false
   XC_GRID 000075000302
$end

$molecule
0 1
C       1.2275998325     -0.0000024241     0.2977897398
C       -0.0118481038     -0.0000022924     -0.5874961030
H       1.2615161344     -0.8175323320     0.8862024046
H       1.2615163012     0.8175366013     0.8862081862
H       2.2971869159     -0.0000015740     -0.4216564297
C       -1.3056178690     -0.0000022623     0.2197464049
H       -0.0000989724     -0.8738475831     -1.2432444202
H       -0.0000988761     0.8738495180     -1.2432484305
H       -1.3483514626     -0.9427515372     0.9212500832
H       -2.0334524734     -0.0000010129     -0.2957619137
H       -1.3483514873     0.9427555647     0.9212554974
$end
--------------------------------------------------------------

             Standard Nuclear Orientation (Angstroms)
    I     Atom           X                Y                Z
 ----------------------------------------------------------------
    1      C       1.2275998325    -0.0000024241     0.2977897398
    2      C      -0.0118481038    -0.0000022924    -0.5874961030
    3      H       1.2615161344    -0.8175323320     0.8862024046
    4      H       1.2615163012     0.8175366013     0.8862081862
    5      H       2.2971869159    -0.0000015740    -0.4216564297
    6      C      -1.3056178690    -0.0000022623     0.2197464049
    7      H      -0.0000989724    -0.8738475831    -1.2432444202
    8      H      -0.0000988761     0.8738495180    -1.2432484305
    9      H      -1.3483514626    -0.9427515372     0.9212500832
   10      H      -2.0334524734    -0.0000010129    -0.2957619137
   11      H      -1.3483514873     0.9427555647     0.9212554974
 ----------------------------------------------------------------

    7    -119.0308865546      6.04E-06 Convergence criterion met
    5    -119.0768250550      9.14E-06 Convergence criterion met
 Total energy in the final basis set = -119.07682505

                    Orbital Energies (a.u.)
 --------------------------------------------------------------

 Alpha MOs
 -- Occupied --
-10.2757 -10.2660 -10.2619  -0.8856  -0.7879  -0.6845  -0.5499  -0.5343
 -0.4782  -0.4670  -0.4277  -0.4063  -0.4052

                    Cartesian Multipole Moments
 -----------------------------------------------------------------
    Charge (ESU x 10^10)
                 0.0000
    Dipole Moment (Debye)
         X      -0.2462      Y      -0.0000      Z      -0.0637
       Tot       0.2543
    Quadrupole Moments (Debye-Ang)
        XX     -22.4447     XY       0.0000     YY     -21.3549
        XZ       0.3801     YZ      -0.0000     ZZ     -21.7671

 Total job time:  26.32s(wall), 69.85s(cpu)
        *  Thank you very much for using Q-Chem.  Have a nice day.  *
