 Q-Chem 5.3 (devel), Q-Chem, Inc., Pleasanton, CA (2020)
 Q-Chem 5.3.0 for Intel X86 EM64T Linux

User input:
--------------------------------------------------------------
$rem
   JOBTYPE  sp
   EXCHANGE   omegaB97X-D
   BASIS   6-311+G(2df,2pd)
   UNRESTRICTED   False
   max_scf_cycles   250
   geom_opt_max_cycles   1500
   basis2 6-31G*
   scf_algorithm rca_diis
   SYM_IGNORE  TRUE
   print_input   true
   geom_opt_dmax   80
   pop_mulliken false
   XC_GRID 000075000302
$end

$molecule
0 1
C       1.1740784702     -0.0000004296     0.3814227895
C       -0.0541030167     -0.0000000338     -0.5910343143
H       1.4017302290     -0.8902248897     0.9681103952
H       1.4017293605     0.8902247448     0.9681096792
H       1.8734773215     0.0000000973     -0.4599828928
C       -1.3509971027     0.0000000916     0.1252188949
H       0.1463874398     -0.8666820069     -1.2254022424
H       0.1463884640     0.8666820343     -1.2254017146
H       -1.1779203944     -0.8364685571     0.8080026064
H       -2.3828491110     0.0000006866     -0.2160009437
H       -1.1779217208     0.8364689284     0.8080027613
$end
--------------------------------------------------------------

             Standard Nuclear Orientation (Angstroms)
    I     Atom           X                Y                Z
 ----------------------------------------------------------------
    1      C       1.1740784702    -0.0000004296     0.3814227895
    2      C      -0.0541030167    -0.0000000338    -0.5910343143
    3      H       1.4017302290    -0.8902248897     0.9681103952
    4      H       1.4017293605     0.8902247448     0.9681096792
    5      H       1.8734773215     0.0000000973    -0.4599828928
    6      C      -1.3509971027     0.0000000916     0.1252188949
    7      H       0.1463874398    -0.8666820069    -1.2254022424
    8      H       0.1463884640     0.8666820343    -1.2254017146
    9      H      -1.1779203944    -0.8364685571     0.8080026064
   10      H      -2.3828491110     0.0000006866    -0.2160009437
   11      H      -1.1779217208     0.8364689284     0.8080027613
 ----------------------------------------------------------------

    7    -119.0678873196      4.92E-06 Convergence criterion met
    6    -119.1120898884      4.37E-06 Convergence criterion met
 Total energy in the final basis set = -119.11208989

                    Orbital Energies (a.u.)
 --------------------------------------------------------------

 Alpha MOs
 -- Occupied --
-10.2813 -10.2684 -10.2622  -0.8898  -0.7817  -0.6790  -0.5475  -0.5363
 -0.4877  -0.4615  -0.4147  -0.4051  -0.4015

                    Cartesian Multipole Moments
 -----------------------------------------------------------------
    Charge (ESU x 10^10)
                -0.0000
    Dipole Moment (Debye)
         X       0.1253      Y       0.0000      Z      -0.0772
       Tot       0.1472
    Quadrupole Moments (Debye-Ang)
        XX     -22.0183     XY      -0.0000     YY     -21.5628
        XZ       0.0967     YZ      -0.0000     ZZ     -21.9942

 Total job time:  27.52s(wall), 74.65s(cpu)
        *  Thank you very much for using Q-Chem.  Have a nice day.  *
