 Q-Chem 5.3 (devel), Q-Chem, Inc., Pleasanton, CA (2020)
 Q-Chem 5.3.0 for Intel X86 EM64T Linux

User input:
--------------------------------------------------------------
$rem
   JOBTYPE  sp
   EXCHANGE   omegaB97X-D
   BASIS   6-311+G(2df,2pd)
   UNRESTRICTED   False
   max_scf_cycles   250
   geom_opt_max_cycles   1500
   basis2 6-31G*
   scf_algorithm rca_diis
   SYM_IGNORE  TRUE
   print_input   true
   geom_opt_dmax   80
   pop_mulliken false
   XC_GRID 000075000302
$end

$molecule
0 1
C       1.2665378053     -0.0786322713     0.2388584348
C       -0.0000001980     0.2727626996     -0.5325836323
H       0.9826297076     -0.6194004720     1.1452975717
H       1.8417770234     0.7962742382     0.5443511690
H       1.9234222537     -0.7271127745     -0.3417431063
C       -1.2665372666     -0.0786362656     0.2388584190
H       0.0000007036     -0.3312944399     -1.4426885954
H       -0.0000020109     1.3162935239     -0.8572075800
H       -0.9826315349     -0.6194224404     1.1452873299
H       -1.9234288108     -0.7271012197     -0.3417526443
H       -1.8417677331     0.7962700879     0.5443676528
$end
--------------------------------------------------------------

             Standard Nuclear Orientation (Angstroms)
    I     Atom           X                Y                Z
 ----------------------------------------------------------------
    1      C       1.2665378053    -0.0786322713     0.2388584348
    2      C      -0.0000001980     0.2727626996    -0.5325836323
    3      H       0.9826297076    -0.6194004720     1.1452975717
    4      H       1.8417770234     0.7962742382     0.5443511690
    5      H       1.9234222537    -0.7271127745    -0.3417431063
    6      C      -1.2665372666    -0.0786362656     0.2388584190
    7      H       0.0000007036    -0.3312944399    -1.4426885954
    8      H      -0.0000020109     1.3162935239    -0.8572075800
    9      H      -0.9826315349    -0.6194224404     1.1452873299
   10      H      -1.9234288108    -0.7271012197    -0.3417526443
   11      H      -1.8417677331     0.7962700879     0.5443676528
 ----------------------------------------------------------------

    7    -119.0904220237      4.14E-06 Convergence criterion met
    6    -119.1339474433      4.05E-06 Convergence criterion met
 Total energy in the final basis set = -119.13394744

                    Orbital Energies (a.u.)
 --------------------------------------------------------------

 Alpha MOs
 -- Occupied --
-10.2716 -10.2634 -10.2634  -0.8819  -0.7756  -0.6785  -0.5442  -0.5314
 -0.4739  -0.4674  -0.4203  -0.4158  -0.3985

                    Cartesian Multipole Moments
 -----------------------------------------------------------------
    Charge (ESU x 10^10)
                -0.0000
    Dipole Moment (Debye)
         X      -0.0000      Y       0.0131      Z      -0.0901
       Tot       0.0910
    Quadrupole Moments (Debye-Ang)
        XX     -22.3169     XY      -0.0000     YY     -21.2921
        XZ      -0.0000     YZ       0.2576     ZZ     -21.8467

 Total job time:  27.82s(wall), 75.18s(cpu)
        *  Thank you very much for using Q-Chem.  Have a nice day.  *
