 Q-Chem 5.3 (devel), Q-Chem, Inc., Pleasanton, CA (2020)
 Q-Chem 5.3.0 for Intel X86 EM64T Linux

User input:
--------------------------------------------------------------
$rem
   JOBTYPE  sp
   EXCHANGE   omegaB97X-D
   BASIS   6-311+G(2df,2pd)
   UNRESTRICTED   False
   max_scf_cycles   250
   geom_opt_max_cycles   1500
   basis2 6-31G*
   scf_algorithm rca_diis
   SYM_IGNORE  TRUE
   print_input   true
   geom_opt_dmax   80
   pop_mulliken false
   XC_GRID 000075000302
$end

$molecule
0 1
C       1.1100763717     0.0000006780     0.2595073399
C       0.0000000882     -0.0000023728     -0.7622513966
H       0.9696828945     -0.8739024472     0.9001479761
H       0.9696778633     0.8739039786     0.9001466452
H       2.1364014542     0.0000040285     -0.1029814628
C       -1.1100760899     -0.0000002577     0.2595075041
H       -0.0000004758     -0.8815297144     -1.4051718993
H       0.0000001831     0.8815241443     -1.4051730171
H       -0.9696847324     -0.8739056549     0.9001454835
H       -2.1364011735     0.0000074159     -0.1029817208
H       -0.9696764442     0.8739008677     0.9001495667
$end
--------------------------------------------------------------

             Standard Nuclear Orientation (Angstroms)
    I     Atom           X                Y                Z
 ----------------------------------------------------------------
    1      C       1.1100763717     0.0000006780     0.2595073399
    2      C       0.0000000882    -0.0000023728    -0.7622513966
    3      H       0.9696828945    -0.8739024472     0.9001479761
    4      H       0.9696778633     0.8739039786     0.9001466452
    5      H       2.1364014542     0.0000040285    -0.1029814628
    6      C      -1.1100760899    -0.0000002577     0.2595075041
    7      H      -0.0000004758    -0.8815297144    -1.4051718993
    8      H       0.0000001831     0.8815241443    -1.4051730171
    9      H      -0.9696847324    -0.8739056549     0.9001454835
   10      H      -2.1364011735     0.0000074159    -0.1029817208
   11      H      -0.9696764442     0.8739008677     0.9001495667
 ----------------------------------------------------------------

    7    -119.0822302538      5.44E-06 Convergence criterion met
    5    -119.1261103720      7.27E-06 Convergence criterion met
 Total energy in the final basis set = -119.12611037

                    Orbital Energies (a.u.)
 --------------------------------------------------------------

 Alpha MOs
 -- Occupied --
-10.2734 -10.2629 -10.2628  -0.9015  -0.7595  -0.6884  -0.5596  -0.5397
 -0.4618  -0.4434  -0.4403  -0.4197  -0.4012

                    Cartesian Multipole Moments
 -----------------------------------------------------------------
    Charge (ESU x 10^10)
                -0.0000
    Dipole Moment (Debye)
         X      -0.0000      Y       0.0000      Z      -0.0281
       Tot       0.0281
    Quadrupole Moments (Debye-Ang)
        XX     -22.6988     XY      -0.0000     YY     -21.2490
        XZ      -0.0000     YZ       0.0000     ZZ     -21.7292

 Total job time:  26.86s(wall), 72.01s(cpu)
        *  Thank you very much for using Q-Chem.  Have a nice day.  *
