 Q-Chem 5.3 (devel), Q-Chem, Inc., Pleasanton, CA (2020)
 Q-Chem 5.3.0 for Intel X86 EM64T Linux

User input:
--------------------------------------------------------------
$rem
   JOBTYPE  sp
   EXCHANGE   omegaB97X-D
   BASIS   6-311+G(2df,2pd)
   UNRESTRICTED   False
   max_scf_cycles   250
   geom_opt_max_cycles   1500
   basis2 6-31G*
   scf_algorithm rca_diis
   SYM_IGNORE  TRUE
   print_input   true
   geom_opt_dmax   80
   pop_mulliken false
   XC_GRID 000075000302
$end

$molecule
0 1
C       1.2666001846     0.0390862739     0.2559283718
C       -0.0000008673     0.0000001721     -0.5907806799
H       1.4689804666     -0.8577218823     0.8560721125
H       1.1422385593     0.8724558004     0.9408062126
H       2.1526813953     -0.1811034508     -0.3403089668
C       -1.2666014668     -0.0390859410     0.2559268894
H       0.0396345215     -0.8729843373     -1.2465886667
H       -0.0396324525     0.8729847759     -1.2465888052
H       -1.1422408552     -0.8724489345     0.9408132289
H       -2.1526796364     0.1811021036     -0.3403152640
H       -1.4689799097     0.8577160860     0.8560805862
$end
--------------------------------------------------------------

             Standard Nuclear Orientation (Angstroms)
    I     Atom           X                Y                Z
 ----------------------------------------------------------------
    1      C       1.2666001846     0.0390862739     0.2559283718
    2      C      -0.0000008673     0.0000001721    -0.5907806799
    3      H       1.4689804666    -0.8577218823     0.8560721125
    4      H       1.1422385593     0.8724558004     0.9408062126
    5      H       2.1526813953    -0.1811034508    -0.3403089668
    6      C      -1.2666014668    -0.0390859410     0.2559268894
    7      H       0.0396345215    -0.8729843373    -1.2465886667
    8      H      -0.0396324525     0.8729847759    -1.2465888052
    9      H      -1.1422408552    -0.8724489345     0.9408132289
   10      H      -2.1526796364     0.1811021036    -0.3403152640
   11      H      -1.4689799097     0.8577160860     0.8560805862
 ----------------------------------------------------------------

    7    -119.0705702514      6.15E-06 Convergence criterion met
    6    -119.1152707121      4.05E-06 Convergence criterion met
 Total energy in the final basis set = -119.11527071

                    Orbital Energies (a.u.)
 --------------------------------------------------------------

 Alpha MOs
 -- Occupied --
-10.2746 -10.2658 -10.2658  -0.8830  -0.7810  -0.6810  -0.5530  -0.5440
 -0.4789  -0.4443  -0.4370  -0.4128  -0.3815

                    Cartesian Multipole Moments
 -----------------------------------------------------------------
    Charge (ESU x 10^10)
                 0.0000
    Dipole Moment (Debye)
         X       0.0000      Y      -0.0000      Z      -0.0552
       Tot       0.0552
    Quadrupole Moments (Debye-Ang)
        XX     -22.1020     XY      -1.6384     YY     -21.4515
        XZ      -0.0000     YZ       0.0000     ZZ     -22.0041

 Total job time:  27.32s(wall), 74.28s(cpu)
        *  Thank you very much for using Q-Chem.  Have a nice day.  *
