 Q-Chem 5.3 (devel), Q-Chem, Inc., Pleasanton, CA (2020)
 Q-Chem 5.3.0 for Intel X86 EM64T Linux

User input:
--------------------------------------------------------------
$rem
   JOBTYPE  sp
   EXCHANGE   omegaB97X-D
   BASIS   6-311+G(2df,2pd)
   UNRESTRICTED   False
   max_scf_cycles   250
   geom_opt_max_cycles   1500
   basis2 6-31G*
   scf_algorithm rca_diis
   SYM_IGNORE  TRUE
   print_input   true
   geom_opt_dmax   80
   pop_mulliken false
   XC_GRID 000075000302
$end

$molecule
0 1
C       1.5116003444     -0.0000007383     0.2669842394
C       -0.0000001841     0.0000032180     -0.1125375663
H       1.9037343933     -0.8854539577     0.7676271645
H       1.9037414458     0.8854491180     0.7676275568
H       1.9219543694     -0.0000043875     -0.7482098049
C       -1.5116007576     0.0000011541     0.2669837500
H       0.0000011212     -0.8309256061     -0.8272400737
H       -0.0000003749     0.8309361404     -0.8272353350
H       -1.9037338304     -0.8854481611     0.7676343043
H       -1.9219553424     -0.0000110996     -0.7482097240
H       -1.9037412453     0.8854549858     0.7676205077
$end
--------------------------------------------------------------

             Standard Nuclear Orientation (Angstroms)
    I     Atom           X                Y                Z
 ----------------------------------------------------------------
    1      C       1.5116003444    -0.0000007383     0.2669842394
    2      C      -0.0000001841     0.0000032180    -0.1125375663
    3      H       1.9037343933    -0.8854539577     0.7676271645
    4      H       1.9037414458     0.8854491180     0.7676275568
    5      H       1.9219543694    -0.0000043875    -0.7482098049
    6      C      -1.5116007576     0.0000011541     0.2669837500
    7      H       0.0000011212    -0.8309256061    -0.8272400737
    8      H      -0.0000003749     0.8309361404    -0.8272353350
    9      H      -1.9037338304    -0.8854481611     0.7676343043
   10      H      -1.9219553424    -0.0000110996    -0.7482097240
   11      H      -1.9037412453     0.8854549858     0.7676205077
 ----------------------------------------------------------------

    7    -119.0526841536      4.41E-06 Convergence criterion met
    6    -119.0963647895      4.20E-06 Convergence criterion met
 Total energy in the final basis set = -119.09636479

                    Orbital Energies (a.u.)
 --------------------------------------------------------------

 Alpha MOs
 -- Occupied --
-10.2803 -10.2760 -10.2760  -0.8750  -0.7942  -0.6721  -0.5356  -0.5046
 -0.5033  -0.4773  -0.4289  -0.3960  -0.3837

                    Cartesian Multipole Moments
 -----------------------------------------------------------------
    Charge (ESU x 10^10)
                -0.0000
    Dipole Moment (Debye)
         X      -0.0000      Y      -0.0000      Z      -0.3359
       Tot       0.3359
    Quadrupole Moments (Debye-Ang)
        XX     -21.6818     XY      -0.0000     YY     -21.5565
        XZ       0.0000     YZ       0.0000     ZZ     -21.8664

 Total job time:  26.83s(wall), 72.17s(cpu)
        *  Thank you very much for using Q-Chem.  Have a nice day.  *
