 Q-Chem 5.3 (devel), Q-Chem, Inc., Pleasanton, CA (2020)
 Q-Chem 5.3.0 for Intel X86 EM64T Linux

User input:
--------------------------------------------------------------
$rem
   JOBTYPE  sp
   EXCHANGE   omegaB97X-D
   BASIS   6-311+G(2df,2pd)
   max_scf_cycles   250
   geom_opt_max_cycles   1500
   basis2 6-31G*
   scf_algorithm rca_diis
   SYM_IGNORE  TRUE
   print_input   true
   geom_opt_dmax   80
   pop_mulliken false
   XC_GRID 000075000302
$end

$molecule
0 1
C       1.2683200951     0.0000000010     0.2689166366
C       0.0000001353     -0.0000000066     -0.5623851042
H       1.3057454603     -0.8850300821     0.9174350586
H       1.3057454850     0.8850300583     0.9174349961
H       2.1484486390     -0.0000000142     -0.3366420039
C       -1.2683197432     0.0000000919     0.2689164699
H       0.0000001538     -0.9893618329     -1.3154297954
H       0.0000001274     0.9893620587     -1.3154299988
H       -1.3057453348     -0.8850317225     0.9174362010
H       -2.1484497973     0.0000007591     -0.3366431809
H       -1.3057452812     0.8850313552     0.9174357398
$end
--------------------------------------------------------------

             Standard Nuclear Orientation (Angstroms)
    I     Atom           X                Y                Z
 ----------------------------------------------------------------
    1      C       1.2683200951     0.0000000010     0.2689166366
    2      C       0.0000001353    -0.0000000066    -0.5623851042
    3      H       1.3057454603    -0.8850300821     0.9174350586
    4      H       1.3057454850     0.8850300583     0.9174349961
    5      H       2.1484486390    -0.0000000142    -0.3366420039
    6      C      -1.2683197432     0.0000000919     0.2689164699
    7      H       0.0000001538    -0.9893618329    -1.3154297954
    8      H       0.0000001274     0.9893620587    -1.3154299988
    9      H      -1.3057453348    -0.8850317225     0.9174362010
   10      H      -2.1484497973     0.0000007591    -0.3366431809
   11      H      -1.3057452812     0.8850313552     0.9174357398
 ----------------------------------------------------------------

    7    -119.0827108908      4.66E-06 Convergence criterion met
    6    -119.1248538433      4.29E-06 Convergence criterion met
 Total energy in the final basis set = -119.12485384

                    Orbital Energies (a.u.)
 --------------------------------------------------------------

 Alpha MOs
 -- Occupied --
-10.3045 -10.2669 -10.2669  -0.8784  -0.7821  -0.6590  -0.5358  -0.5289
 -0.4853  -0.4647  -0.4273  -0.4104  -0.3897

                    Cartesian Multipole Moments
 -----------------------------------------------------------------
    Charge (ESU x 10^10)
                -0.0000
    Dipole Moment (Debye)
         X       0.0000      Y       0.0000      Z       0.1312
       Tot       0.1312
    Quadrupole Moments (Debye-Ang)
        XX     -21.9857     XY      -0.0000     YY     -21.6013
        XZ       0.0000     YZ      -0.0000     ZZ     -22.3429

 Total job time:  24.59s(wall), 68.48s(cpu)
        *  Thank you very much for using Q-Chem.  Have a nice day.  *
