 Q-Chem 5.3 (devel), Q-Chem, Inc., Pleasanton, CA (2020)
 Q-Chem 5.3.0 for Intel X86 EM64T Linux

User input:
--------------------------------------------------------------
$rem
   JOBTYPE  sp
   EXCHANGE   omegaB97X-D
   BASIS   6-311+G(2df,2pd)
   UNRESTRICTED   False
   max_scf_cycles   250
   geom_opt_max_cycles   1500
   basis2 6-31G*
   scf_algorithm rca_diis
   SYM_IGNORE  TRUE
   print_input   true
   geom_opt_dmax   80
   pop_mulliken false
   XC_GRID 000075000302
$end

$molecule
0 1
C       1.2672021161     0.0642940821     0.2597405167
C       -0.0000003805     0.0607103804     -0.5869621747
H       1.3094222673     -0.9388550097     0.9812637848
H       1.3009068313     0.8238064936     0.8249218717
H       2.1645487770     0.0506426695     -0.3597192351
C       -1.2672047956     0.0642952464     0.2597376737
H       -0.0000001070     -0.9045216078     -1.3015612474
H       0.0000001035     0.8440364365     -1.1828498054
H       -1.3094258567     -0.9388620931     0.9812674797
H       -2.1645396230     0.0506446295     -0.3597150645
H       -1.3009093931     0.8238094386     0.8249212194
$end
--------------------------------------------------------------

             Standard Nuclear Orientation (Angstroms)
    I     Atom           X                Y                Z
 ----------------------------------------------------------------
    1      C       1.2672021161     0.0642940821     0.2597405167
    2      C      -0.0000003805     0.0607103804    -0.5869621747
    3      H       1.3094222673    -0.9388550097     0.9812637848
    4      H       1.3009068313     0.8238064936     0.8249218717
    5      H       2.1645487770     0.0506426695    -0.3597192351
    6      C      -1.2672047956     0.0642952464     0.2597376737
    7      H      -0.0000001070    -0.9045216078    -1.3015612474
    8      H       0.0000001035     0.8440364365    -1.1828498054
    9      H      -1.3094258567    -0.9388620931     0.9812674797
   10      H      -2.1645396230     0.0506446295    -0.3597150645
   11      H      -1.3009093931     0.8238094386     0.8249212194
 ----------------------------------------------------------------

    7    -119.0332816604      4.99E-06 Convergence criterion met
    5    -119.0790493793      9.82E-06 Convergence criterion met
 Total energy in the final basis set = -119.07904938

                    Orbital Energies (a.u.)
 --------------------------------------------------------------

 Alpha MOs
 -- Occupied --
-10.2745 -10.2638 -10.2638  -0.8868  -0.7848  -0.6873  -0.5486  -0.5262
 -0.5023  -0.4465  -0.4191  -0.4172  -0.4047

                    Cartesian Multipole Moments
 -----------------------------------------------------------------
    Charge (ESU x 10^10)
                -0.0000
    Dipole Moment (Debye)
         X      -0.0000      Y       0.4483      Z      -0.1250
       Tot       0.4654
    Quadrupole Moments (Debye-Ang)
        XX     -22.1368     XY      -0.0000     YY     -21.3116
        XZ       0.0000     YZ      -0.0091     ZZ     -21.9231

 Total job time:  23.09s(wall), 63.84s(cpu)
        *  Thank you very much for using Q-Chem.  Have a nice day.  *
