 Q-Chem 5.3 (devel), Q-Chem, Inc., Pleasanton, CA (2020)
 Q-Chem 5.3.0 for Intel X86 EM64T Linux

User input:
--------------------------------------------------------------
$rem
   JOBTYPE  sp
   EXCHANGE   omegaB97X-D
   BASIS   6-311+G(2df,2pd)
   UNRESTRICTED   False
   max_scf_cycles   250
   geom_opt_max_cycles   1500
   basis2 6-31G*
   scf_algorithm rca_diis
   SYM_IGNORE  TRUE
   print_input   true
   geom_opt_dmax   80
   pop_mulliken false
   XC_GRID 000075000302
$end

$molecule
0 1
C       1.2669622237     0.0067751156     0.2590526304
C       0.0000000092     -0.0420057801     -0.5866116013
H       1.3066443170     -0.9267125503     0.9617069408
H       1.3035630119     0.8333014256     0.8464919674
H       2.1643498508     -0.0110335465     -0.3602216959
C       -1.2669622362     0.0067746690     0.2590525827
H       0.0000001228     -0.7546009513     -1.1146378844
H       -0.0000002010     0.9919448936     -1.3717652336
H       -1.3066440592     -0.9267116735     0.9617061102
H       -2.1643498174     -0.0110335211     -0.3602217473
H       -1.3035632822     0.8333025850     0.8464929498
$end
--------------------------------------------------------------

             Standard Nuclear Orientation (Angstroms)
    I     Atom           X                Y                Z
 ----------------------------------------------------------------
    1      C       1.2669622237     0.0067751156     0.2590526304
    2      C       0.0000000092    -0.0420057801    -0.5866116013
    3      H       1.3066443170    -0.9267125503     0.9617069408
    4      H       1.3035630119     0.8333014256     0.8464919674
    5      H       2.1643498508    -0.0110335465    -0.3602216959
    6      C      -1.2669622362     0.0067746690     0.2590525827
    7      H       0.0000001228    -0.7546009513    -1.1146378844
    8      H      -0.0000002010     0.9919448936    -1.3717652336
    9      H      -1.3066440592    -0.9267116735     0.9617061102
   10      H      -2.1643498174    -0.0110335211    -0.3602217473
   11      H      -1.3035632822     0.8333025850     0.8464929498
 ----------------------------------------------------------------

    7    -119.0311253307      5.87E-06 Convergence criterion met
    6    -119.0770701343      4.21E-06 Convergence criterion met
 Total energy in the final basis set = -119.07707013

                    Orbital Energies (a.u.)
 --------------------------------------------------------------

 Alpha MOs
 -- Occupied --
-10.2721 -10.2660 -10.2660  -0.8876  -0.7802  -0.6959  -0.5443  -0.5217
 -0.4932  -0.4561  -0.4411  -0.4205  -0.3878

                    Cartesian Multipole Moments
 -----------------------------------------------------------------
    Charge (ESU x 10^10)
                -0.0000
    Dipole Moment (Debye)
         X      -0.0000      Y      -0.0673      Z      -0.0024
       Tot       0.0673
    Quadrupole Moments (Debye-Ang)
        XX     -22.0525     XY       0.0000     YY     -21.3982
        XZ      -0.0000     YZ       0.3786     ZZ     -22.0128

 Total job time:  27.02s(wall), 73.20s(cpu)
        *  Thank you very much for using Q-Chem.  Have a nice day.  *
