 Q-Chem 5.3 (devel), Q-Chem, Inc., Pleasanton, CA (2020)
 Q-Chem 5.3.0 for Intel X86 EM64T Linux

User input:
--------------------------------------------------------------
$rem
   JOBTYPE  sp
   EXCHANGE   omegaB97X-D
   BASIS   6-311+G(2df,2pd)
   max_scf_cycles   250
   geom_opt_max_cycles   1500
   basis2 6-31G*
   scf_algorithm rca_diis
   SYM_IGNORE  TRUE
   print_input   true
   geom_opt_dmax   80
   pop_mulliken false
   XC_GRID 000075000302
$end

$molecule
0 1
C       1.4927499043     -0.0000007094     0.2663141792
C       -0.0000001660     0.0000031445     -0.1681360984
H       1.8515264224     -0.8855292981     0.7916456418
H       1.8515331588     0.8855248905     0.7916460548
H       1.9661329769     -0.0000042276     -0.7205076205
C       -1.4927502918     0.0000010072     0.2663137448
H       0.0000010006     -0.8375205933     -0.8745095655
H       -0.0000003542     0.8375303092     -0.8745055245
H       -1.8515256574     -0.8855239887     0.7916520146
H       -1.9661338414     -0.0000101162     -0.7205075118
H       -1.8515332127     0.8855302478     0.7916397044
$end
--------------------------------------------------------------

             Standard Nuclear Orientation (Angstroms)
    I     Atom           X                Y                Z
 ----------------------------------------------------------------
    1      C       1.4927499043    -0.0000007094     0.2663141792
    2      C      -0.0000001660     0.0000031445    -0.1681360984
    3      H       1.8515264224    -0.8855292981     0.7916456418
    4      H       1.8515331588     0.8855248905     0.7916460548
    5      H       1.9661329769    -0.0000042276    -0.7205076205
    6      C      -1.4927502918     0.0000010072     0.2663137448
    7      H       0.0000010006    -0.8375205933    -0.8745095655
    8      H      -0.0000003542     0.8375303092    -0.8745055245
    9      H      -1.8515256574    -0.8855239887     0.7916520146
   10      H      -1.9661338414    -0.0000101162    -0.7205075118
   11      H      -1.8515332127     0.8855302478     0.7916397044
 ----------------------------------------------------------------

    7    -119.0627380043      4.27E-06 Convergence criterion met
    6    -119.1061996746      4.20E-06 Convergence criterion met
 Total energy in the final basis set = -119.10619967

                    Orbital Energies (a.u.)
 --------------------------------------------------------------

 Alpha MOs
 -- Occupied --
-10.2795 -10.2744 -10.2744  -0.8741  -0.7929  -0.6722  -0.5362  -0.5058
 -0.5014  -0.4764  -0.4288  -0.3972  -0.3877

                    Cartesian Multipole Moments
 -----------------------------------------------------------------
    Charge (ESU x 10^10)
                -0.0000
    Dipole Moment (Debye)
         X      -0.0000      Y      -0.0000      Z      -0.2890
       Tot       0.2890
    Quadrupole Moments (Debye-Ang)
        XX     -21.7476     XY      -0.0000     YY     -21.5235
        XZ       0.0000     YZ       0.0000     ZZ     -21.8264

 Total job time:  27.00s(wall), 72.25s(cpu)
        *  Thank you very much for using Q-Chem.  Have a nice day.  *
