 Q-Chem 5.3 (devel), Q-Chem, Inc., Pleasanton, CA (2020)
 Q-Chem 5.3.0 for Intel X86 EM64T Linux

User input:
--------------------------------------------------------------
$rem
   JOBTYPE  sp
   EXCHANGE   omegaB97X-D
   BASIS   6-311+G(2df,2pd)
   max_scf_cycles   250
   geom_opt_max_cycles   1500
   basis2 6-31G*
   scf_algorithm rca_diis
   SYM_IGNORE  TRUE
   print_input   true
   geom_opt_dmax   80
   pop_mulliken false
   XC_GRID 000075000302
$end

$molecule
0 1
C       1.2639783926     -0.0000033249     0.2586511933
C       0.0000017681     -0.0000009331     -0.5687715507
H       1.2603715836     -0.7639073568     1.0432453666
H       1.2603823678     0.7639040259     1.0432428148
H       2.0994111256     0.0000094016     -0.4313788318
C       -1.2639756174     0.0000022935     0.2586533646
H       -0.0000015643     -0.6501038217     -1.4588460910
H       -0.0000017776     0.6501026304     -1.4588455412
H       -1.2603798517     -0.7639191160     1.0432307444
H       -2.0994155877     -0.0000047949     -0.4313688219
H       -1.2603708996     0.7639216620     1.0432323718
$end
--------------------------------------------------------------

             Standard Nuclear Orientation (Angstroms)
    I     Atom           X                Y                Z
 ----------------------------------------------------------------
    1      C       1.2639783926    -0.0000033249     0.2586511933
    2      C       0.0000017681    -0.0000009331    -0.5687715507
    3      H       1.2603715836    -0.7639073568     1.0432453666
    4      H       1.2603823678     0.7639040259     1.0432428148
    5      H       2.0994111256     0.0000094016    -0.4313788318
    6      C      -1.2639756174     0.0000022935     0.2586533646
    7      H      -0.0000015643    -0.6501038217    -1.4588460910
    8      H      -0.0000017776     0.6501026304    -1.4588455412
    9      H      -1.2603798517    -0.7639191160     1.0432307444
   10      H      -2.0994155877    -0.0000047949    -0.4313688219
   11      H      -1.2603708996     0.7639216620     1.0432323718
 ----------------------------------------------------------------

    7    -119.0423469458      7.46E-06 Convergence criterion met
    6    -119.0891236485      4.47E-06 Convergence criterion met
 Total energy in the final basis set = -119.08912365

                    Orbital Energies (a.u.)
 --------------------------------------------------------------

 Alpha MOs
 -- Occupied --
-10.2756 -10.2686 -10.2686  -0.8863  -0.7811  -0.7083  -0.5394  -0.5243
 -0.4998  -0.4795  -0.4257  -0.4154  -0.3494

                    Cartesian Multipole Moments
 -----------------------------------------------------------------
    Charge (ESU x 10^10)
                 0.0000
    Dipole Moment (Debye)
         X      -0.0000      Y       0.0000      Z      -0.1384
       Tot       0.1384
    Quadrupole Moments (Debye-Ang)
        XX     -22.4410     XY       0.0000     YY     -23.7695
        XZ       0.0000     YZ      -0.0000     ZZ     -19.2686

 Total job time:  27.15s(wall), 73.87s(cpu)
        *  Thank you very much for using Q-Chem.  Have a nice day.  *
