 Q-Chem 5.3 (devel), Q-Chem, Inc., Pleasanton, CA (2020)
 Q-Chem 5.3.0 for Intel X86 EM64T Linux

User input:
--------------------------------------------------------------
$rem
   JOBTYPE  sp
   EXCHANGE   omegaB97X-D
   BASIS   6-311+G(2df,2pd)
   max_scf_cycles   250
   geom_opt_max_cycles   1500
   basis2 6-31G*
   scf_algorithm rca_diis
   SYM_IGNORE  TRUE
   print_input   true
   geom_opt_dmax   80
   pop_mulliken false
   XC_GRID 000075000302
$end

$molecule
0 1
C       1.2670373189     -0.0393285897     0.2543461869
C       -0.0000000391     0.1398343200     -0.5734444018
H       1.0947673880     -0.7829059277     1.0358997567
H       1.5719917315     0.8872438285     0.7436390719
H       2.1008376534     -0.3859599945     -0.3570015124
C       -1.2670370983     -0.0393307389     0.2543463011
H       0.0000005585     -0.6103052486     -1.3676608547
H       -0.0000010279     1.1123821401     -1.0716159779
H       -1.0947705021     -0.7829155355     1.0358933550
H       -2.1008394783     -0.3859525980     -0.3570041061
H       -1.5719865654     0.8872390103     0.7436472001
$end
--------------------------------------------------------------

             Standard Nuclear Orientation (Angstroms)
    I     Atom           X                Y                Z
 ----------------------------------------------------------------
    1      C       1.2670373189    -0.0393285897     0.2543461869
    2      C      -0.0000000391     0.1398343200    -0.5734444018
    3      H       1.0947673880    -0.7829059277     1.0358997567
    4      H       1.5719917315     0.8872438285     0.7436390719
    5      H       2.1008376534    -0.3859599945    -0.3570015124
    6      C      -1.2670370983    -0.0393307389     0.2543463011
    7      H       0.0000005585    -0.6103052486    -1.3676608547
    8      H      -0.0000010279     1.1123821401    -1.0716159779
    9      H      -1.0947705021    -0.7829155355     1.0358933550
   10      H      -2.1008394783    -0.3859525980    -0.3570041061
   11      H      -1.5719865654     0.8872390103     0.7436472001
 ----------------------------------------------------------------

    7    -119.0981781162      4.35E-06 Convergence criterion met
    6    -119.1413184828      3.94E-06 Convergence criterion met
 Total energy in the final basis set = -119.14131848

                    Orbital Energies (a.u.)
 --------------------------------------------------------------

 Alpha MOs
 -- Occupied --
-10.2731 -10.2644 -10.2644  -0.8813  -0.7765  -0.6780  -0.5453  -0.5265
 -0.4801  -0.4644  -0.4198  -0.4171  -0.4033

                    Cartesian Multipole Moments
 -----------------------------------------------------------------
    Charge (ESU x 10^10)
                -0.0000
    Dipole Moment (Debye)
         X      -0.0000      Y       0.0082      Z      -0.0880
       Tot       0.0884
    Quadrupole Moments (Debye-Ang)
        XX     -22.2426     XY      -0.0000     YY     -21.3173
        XZ      -0.0000     YZ       0.1089     ZZ     -21.8425

 Total job time:  28.28s(wall), 75.83s(cpu)
        *  Thank you very much for using Q-Chem.  Have a nice day.  *
