 Q-Chem 5.3 (devel), Q-Chem, Inc., Pleasanton, CA (2020)
 Q-Chem 5.3.0 for Intel X86 EM64T Linux

User input:
--------------------------------------------------------------
$rem
   JOBTYPE  sp
   EXCHANGE   omegaB97X-D
   BASIS   6-311+G(2df,2pd)
   UNRESTRICTED   False
   max_scf_cycles   250
   geom_opt_max_cycles   1500
   basis2 6-31G*
   scf_algorithm rca_diis
   SYM_IGNORE  TRUE
   print_input   true
   geom_opt_dmax   80
   pop_mulliken false
   XC_GRID 000075000302
$end

$molecule
0 1
C       1.2663178080     -0.0265460323     0.2591428010
C       0.0000000111     0.0283037708     -0.5871144374
H       1.3358697877     -0.8921638404     0.9188648632
H       1.2727089048     0.8685880601     0.8865846221
H       2.1630853387     0.0304518153     -0.3586610690
C       -1.2663178106     -0.0265460294     0.2591428137
H       -0.0000000368     -0.8683690206     -1.2122125414
H       -0.0000000239     0.8794051207     -1.2714904745
H       -1.3358696677     -0.8921638053     0.9188648821
H       -2.1630853011     0.0304525288     -0.3586610514
H       -1.2727090708     0.8685880986     0.8865846105
$end
--------------------------------------------------------------

             Standard Nuclear Orientation (Angstroms)
    I     Atom           X                Y                Z
 ----------------------------------------------------------------
    1      C       1.2663178080    -0.0265460323     0.2591428010
    2      C       0.0000000111     0.0283037708    -0.5871144374
    3      H       1.3358697877    -0.8921638404     0.9188648632
    4      H       1.2727089048     0.8685880601     0.8865846221
    5      H       2.1630853387     0.0304518153    -0.3586610690
    6      C      -1.2663178106    -0.0265460294     0.2591428137
    7      H      -0.0000000368    -0.8683690206    -1.2122125414
    8      H      -0.0000000239     0.8794051207    -1.2714904745
    9      H      -1.3358696677    -0.8921638053     0.9188648821
   10      H      -2.1630853011     0.0304525288    -0.3586610514
   11      H      -1.2727090708     0.8685880986     0.8865846105
 ----------------------------------------------------------------

    7    -119.1002637689      4.62E-06 Convergence criterion met
    6    -119.1432800381      3.88E-06 Convergence criterion met
 Total energy in the final basis set = -119.14328004

                    Orbital Energies (a.u.)
 --------------------------------------------------------------

 Alpha MOs
 -- Occupied --
-10.2742 -10.2652 -10.2652  -0.8816  -0.7773  -0.6777  -0.5462  -0.5242
 -0.4847  -0.4614  -0.4249  -0.4182  -0.3996

                    Cartesian Multipole Moments
 -----------------------------------------------------------------
    Charge (ESU x 10^10)
                 0.0000
    Dipole Moment (Debye)
         X      -0.0000      Y       0.0121      Z      -0.0869
       Tot       0.0877
    Quadrupole Moments (Debye-Ang)
        XX     -22.1799     XY      -0.0000     YY     -21.3535
        XZ      -0.0000     YZ      -0.3630     ZZ     -21.8568

 Total job time:  27.10s(wall), 73.63s(cpu)
        *  Thank you very much for using Q-Chem.  Have a nice day.  *
