 Q-Chem 5.3 (devel), Q-Chem, Inc., Pleasanton, CA (2020)
 Q-Chem 5.3.0 for Intel X86 EM64T Linux

User input:
--------------------------------------------------------------
$rem
   JOBTYPE  sp
   EXCHANGE   omegaB97X-D
   BASIS   6-311+G(2df,2pd)
   UNRESTRICTED   False
   max_scf_cycles   250
   geom_opt_max_cycles   1500
   basis2 6-31G*
   scf_algorithm rca_diis
   SYM_IGNORE  TRUE
   print_input   true
   geom_opt_dmax   80
   pop_mulliken false
   XC_GRID 000075000302
$end

$molecule
0 1
C       1.2672010900     -0.0182651591     0.2591448412
C       0.0000001490     -0.0179904597     -0.5875681043
H       1.2555317575     -0.8879191034     0.9168150026
H       1.3551350233     0.8705724416     0.8897209518
H       2.1629291421     0.0587224752     -0.3579989493
C       -1.2672007083     -0.0182652387     0.2591450574
H       0.0000000870     -0.8879718891     -1.2492467575
H       -0.0000001755     0.8597404905     -1.2375032076
H       -1.2555313084     -0.8879198475     0.9168142342
H       -2.1629293551     0.0587237437     -0.3579978608
H       -1.3551357622     0.8705732125     0.8897198113
$end
--------------------------------------------------------------

             Standard Nuclear Orientation (Angstroms)
    I     Atom           X                Y                Z
 ----------------------------------------------------------------
    1      C       1.2672010900    -0.0182651591     0.2591448412
    2      C       0.0000001490    -0.0179904597    -0.5875681043
    3      H       1.2555317575    -0.8879191034     0.9168150026
    4      H       1.3551350233     0.8705724416     0.8897209518
    5      H       2.1629291421     0.0587224752    -0.3579989493
    6      C      -1.2672007083    -0.0182652387     0.2591450574
    7      H       0.0000000870    -0.8879718891    -1.2492467575
    8      H      -0.0000001755     0.8597404905    -1.2375032076
    9      H      -1.2555313084    -0.8879198475     0.9168142342
   10      H      -2.1629293551     0.0587237437    -0.3579978608
   11      H      -1.3551357622     0.8705732125     0.8897198113
 ----------------------------------------------------------------

    7    -119.0995137475      4.76E-06 Convergence criterion met
    6    -119.1426205393      3.86E-06 Convergence criterion met
 Total energy in the final basis set = -119.14262054

                    Orbital Energies (a.u.)
 --------------------------------------------------------------

 Alpha MOs
 -- Occupied --
-10.2741 -10.2652 -10.2652  -0.8814  -0.7775  -0.6781  -0.5497  -0.5210
 -0.4835  -0.4659  -0.4177  -0.4149  -0.4065

                    Cartesian Multipole Moments
 -----------------------------------------------------------------
    Charge (ESU x 10^10)
                -0.0000
    Dipole Moment (Debye)
         X      -0.0000      Y       0.0914      Z      -0.0836
       Tot       0.1239
    Quadrupole Moments (Debye-Ang)
        XX     -22.1663     XY      -0.0000     YY     -21.3680
        XZ      -0.0000     YZ      -0.1596     ZZ     -21.8586

 Total job time:  27.20s(wall), 73.90s(cpu)
        *  Thank you very much for using Q-Chem.  Have a nice day.  *
