 Q-Chem 5.3 (devel), Q-Chem, Inc., Pleasanton, CA (2020)
 Q-Chem 5.3.0 for Intel X86 EM64T Linux

User input:
--------------------------------------------------------------
$rem
   JOBTYPE  sp
   EXCHANGE   omegaB97X-D
   BASIS   6-311+G(2df,2pd)
   UNRESTRICTED   False
   max_scf_cycles   250
   geom_opt_max_cycles   1500
   basis2 6-31G*
   scf_algorithm rca_diis
   SYM_IGNORE  TRUE
   print_input   true
   geom_opt_dmax   80
   pop_mulliken false
   XC_GRID 000075000302
$end

$molecule
0 1
C       1.2618006783     -0.1154934849     0.2693039411
C       0.0000000991     -0.0000001767     -0.5775974510
H       1.4754785385     -0.8404301330     1.0521661971
H       1.1346384814     0.8738183559     0.7225207976
H       2.1425279311     0.0300655626     -0.3569982500
C       -1.2618003065     0.1154932381     0.2693043706
H       -0.2979168548     -0.8260780547     -1.2276724817
H       0.2979162730     0.8260789780     -1.2276711874
H       -1.1346387519     -0.8738183123     0.7225220860
H       -2.1425269292     -0.0300658215     -0.3569987829
H       -1.4754792195     0.8404305144     1.0521657795
$end
--------------------------------------------------------------

             Standard Nuclear Orientation (Angstroms)
    I     Atom           X                Y                Z
 ----------------------------------------------------------------
    1      C       1.2618006783    -0.1154934849     0.2693039411
    2      C       0.0000000991    -0.0000001767    -0.5775974510
    3      H       1.4754785385    -0.8404301330     1.0521661971
    4      H       1.1346384814     0.8738183559     0.7225207976
    5      H       2.1425279311     0.0300655626    -0.3569982500
    6      C      -1.2618003065     0.1154932381     0.2693043706
    7      H      -0.2979168548    -0.8260780547    -1.2276724817
    8      H       0.2979162730     0.8260789780    -1.2276711874
    9      H      -1.1346387519    -0.8738183123     0.7225220860
   10      H      -2.1425269292    -0.0300658215    -0.3569987829
   11      H      -1.4754792195     0.8404305144     1.0521657795
 ----------------------------------------------------------------

    7    -119.0687321037      5.15E-06 Convergence criterion met
    6    -119.1128558099      4.23E-06 Convergence criterion met
 Total energy in the final basis set = -119.11285581

                    Orbital Energies (a.u.)
 --------------------------------------------------------------

 Alpha MOs
 -- Occupied --
-10.2807 -10.2663 -10.2663  -0.8899  -0.7830  -0.6768  -0.5574  -0.5287
 -0.4773  -0.4696  -0.4188  -0.4036  -0.4011

                    Cartesian Multipole Moments
 -----------------------------------------------------------------
    Charge (ESU x 10^10)
                -0.0000
    Dipole Moment (Debye)
         X      -0.0000      Y       0.0000      Z      -0.0451
       Tot       0.0451
    Quadrupole Moments (Debye-Ang)
        XX     -21.9960     XY       0.1619     YY     -21.6838
        XZ       0.0000     YZ      -0.0000     ZZ     -21.8857

 Total job time:  27.26s(wall), 74.18s(cpu)
        *  Thank you very much for using Q-Chem.  Have a nice day.  *
