 Q-Chem 5.3 (devel), Q-Chem, Inc., Pleasanton, CA (2020)
 Q-Chem 5.3.0 for Intel X86 EM64T Linux

User input:
--------------------------------------------------------------
$rem
   JOBTYPE  sp
   EXCHANGE   omegaB97X-D
   BASIS   6-311+G(2df,2pd)
   UNRESTRICTED   False
   max_scf_cycles   250
   geom_opt_max_cycles   1500
   basis2 6-31G*
   scf_algorithm rca_diis
   SYM_IGNORE  TRUE
   print_input   true
   geom_opt_dmax   80
   pop_mulliken false
   XC_GRID 000075000302
$end

$molecule
0 1
C       1.2611425382     0.1342076206     0.2566216031
C       0.0000000550     0.0000000096     -0.5884987703
H       1.2671928242     -0.8174248382     0.7935143177
H       1.3412910422     0.9363446738     0.9918831843
H       2.1546266604     0.0497880495     -0.3627989676
C       -1.2611424152     -0.1342073413     0.2566216469
H       -0.4092065322     -0.7965510665     -1.2144484645
H       0.4092068584     0.7965509303     -1.2144484888
H       -1.3412909872     -0.9363446293     0.9918829318
H       -2.1546267698     -0.0497876863     -0.3627986280
H       -1.2671933346     0.8174249437     0.7935146544
$end
--------------------------------------------------------------

             Standard Nuclear Orientation (Angstroms)
    I     Atom           X                Y                Z
 ----------------------------------------------------------------
    1      C       1.2611425382     0.1342076206     0.2566216031
    2      C       0.0000000550     0.0000000096    -0.5884987703
    3      H       1.2671928242    -0.8174248382     0.7935143177
    4      H       1.3412910422     0.9363446738     0.9918831843
    5      H       2.1546266604     0.0497880495    -0.3627989676
    6      C      -1.2611424152    -0.1342073413     0.2566216469
    7      H      -0.4092065322    -0.7965510665    -1.2144484645
    8      H       0.4092068584     0.7965509303    -1.2144484888
    9      H      -1.3412909872    -0.9363446293     0.9918829318
   10      H      -2.1546267698    -0.0497876863    -0.3627986280
   11      H      -1.2671933346     0.8174249437     0.7935146544
 ----------------------------------------------------------------

    7    -119.0270265508      7.47E-06 Convergence criterion met
    6    -119.0727558555      4.78E-06 Convergence criterion met
 Total energy in the final basis set = -119.07275586

                    Orbital Energies (a.u.)
 --------------------------------------------------------------

 Alpha MOs
 -- Occupied --
-10.2726 -10.2698 -10.2698  -0.8900  -0.7872  -0.6771  -0.5549  -0.5291
 -0.5106  -0.4751  -0.4346  -0.3985  -0.3430

                    Cartesian Multipole Moments
 -----------------------------------------------------------------
    Charge (ESU x 10^10)
                -0.0000
    Dipole Moment (Debye)
         X      -0.0000      Y       0.0000      Z       0.0360
       Tot       0.0360
    Quadrupole Moments (Debye-Ang)
        XX     -21.7700     XY       1.1207     YY     -21.7784
        XZ      -0.0000     YZ       0.0000     ZZ     -22.2280

 Total job time:  27.05s(wall), 73.61s(cpu)
        *  Thank you very much for using Q-Chem.  Have a nice day.  *
