 Q-Chem 5.3 (devel), Q-Chem, Inc., Pleasanton, CA (2020)
 Q-Chem 5.3.0 for Intel X86 EM64T Linux

User input:
--------------------------------------------------------------
$rem
   JOBTYPE  sp
   EXCHANGE   omegaB97X-D
   BASIS   6-311+G(2df,2pd)
   UNRESTRICTED   False
   max_scf_cycles   250
   geom_opt_max_cycles   1500
   basis2 6-31G*
   scf_algorithm rca_diis
   SYM_IGNORE  TRUE
   print_input   true
   geom_opt_dmax   80
   pop_mulliken false
   XC_GRID 000075000302
$end

$molecule
0 1
C       1.2303405433     0.0000001458     0.2590996704
C       0.0000000220     -0.0000005782     -0.6338302407
H       1.2240437890     -0.8792686092     0.9067396583
H       1.2240425817     0.8792690621     0.9067394303
H       2.1662606560     0.0000009054     -0.2995414489
C       -1.2303404763     -0.0000000985     0.2590997164
H       -0.0000001214     -0.8764269334     -1.2855995527
H       -0.0000000065     0.8764255334     -1.2855998772
H       -1.2240441650     -0.8792693775     0.9067389734
H       -2.1662605704     0.0000023066     -0.2995415031
H       -1.2240423129     0.8792683095     0.9067401927
$end
--------------------------------------------------------------

             Standard Nuclear Orientation (Angstroms)
    I     Atom           X                Y                Z
 ----------------------------------------------------------------
    1      C       1.2303405433     0.0000001458     0.2590996704
    2      C       0.0000000220    -0.0000005782    -0.6338302407
    3      H       1.2240437890    -0.8792686092     0.9067396583
    4      H       1.2240425817     0.8792690621     0.9067394303
    5      H       2.1662606560     0.0000009054    -0.2995414489
    6      C      -1.2303404763    -0.0000000985     0.2590997164
    7      H      -0.0000001214    -0.8764269334    -1.2855995527
    8      H      -0.0000000065     0.8764255334    -1.2855998772
    9      H      -1.2240441650    -0.8792693775     0.9067389734
   10      H      -2.1662605704     0.0000023066    -0.2995415031
   11      H      -1.2240423129     0.8792683095     0.9067401927
 ----------------------------------------------------------------

    7    -119.1021402150      4.64E-06 Convergence criterion met
    5    -119.1451331609      9.43E-06 Convergence criterion met
 Total energy in the final basis set = -119.14513316

                    Orbital Energies (a.u.)
 --------------------------------------------------------------

 Alpha MOs
 -- Occupied --
-10.2740 -10.2643 -10.2643  -0.8846  -0.7738  -0.6795  -0.5481  -0.5278
 -0.4788  -0.4602  -0.4223  -0.4156  -0.4097

                    Cartesian Multipole Moments
 -----------------------------------------------------------------
    Charge (ESU x 10^10)
                -0.0000
    Dipole Moment (Debye)
         X      -0.0000      Y       0.0000      Z      -0.0740
       Tot       0.0740
    Quadrupole Moments (Debye-Ang)
        XX     -22.2409     XY      -0.0000     YY     -21.3460
        XZ       0.0000     YZ      -0.0000     ZZ     -21.8490

 Total job time:  25.80s(wall), 69.32s(cpu)
        *  Thank you very much for using Q-Chem.  Have a nice day.  *
