 Q-Chem 5.3 (devel), Q-Chem, Inc., Pleasanton, CA (2020)
 Q-Chem 5.3.0 for Intel X86 EM64T Linux

User input:
--------------------------------------------------------------
$rem
   JOBTYPE  sp
   EXCHANGE   omegaB97X-D
   BASIS   6-311+G(2df,2pd)
   UNRESTRICTED   False
   max_scf_cycles   250
   geom_opt_max_cycles   1500
   basis2 6-31G*
   scf_algorithm rca_diis
   SYM_IGNORE  TRUE
   print_input   true
   geom_opt_dmax   80
   pop_mulliken false
   XC_GRID 000075000302
$end

$molecule
0 1
C       1.2671902354     0.0364437465     0.2580908906
C       -0.0000003004     0.0359573249     -0.5886368855
H       1.4051309318     -0.8577207693     0.8745750955
H       1.2058573343     0.8922475445     0.9286096043
H       2.1578463719     -0.1172052799     -0.3520289205
C       -1.2671910376     0.0364441962     0.2580904066
H       -0.0000000989     -0.8455445691     -1.2327276524
H       0.0000001132     0.9020575700     -1.2560850160
H       -1.4051318614     -0.8577190003     0.8745766431
H       -2.1578457657     -0.1172059713     -0.3520308510
H       -1.2058559832     0.8922458737     0.9286117041
$end
--------------------------------------------------------------

             Standard Nuclear Orientation (Angstroms)
    I     Atom           X                Y                Z
 ----------------------------------------------------------------
    1      C       1.2671902354     0.0364437465     0.2580908906
    2      C      -0.0000003004     0.0359573249    -0.5886368855
    3      H       1.4051309318    -0.8577207693     0.8745750955
    4      H       1.2058573343     0.8922475445     0.9286096043
    5      H       2.1578463719    -0.1172052799    -0.3520289205
    6      C      -1.2671910376     0.0364441962     0.2580904066
    7      H      -0.0000000989    -0.8455445691    -1.2327276524
    8      H       0.0000001132     0.9020575700    -1.2560850160
    9      H      -1.4051318614    -0.8577190003     0.8745766431
   10      H      -2.1578457657    -0.1172059713    -0.3520308510
   11      H      -1.2058559832     0.8922458737     0.9286117041
 ----------------------------------------------------------------

    7    -119.0885547724      5.51E-06 Convergence criterion met
    6    -119.1322530290      3.85E-06 Convergence criterion met
 Total energy in the final basis set = -119.13225303

                    Orbital Energies (a.u.)
 --------------------------------------------------------------

 Alpha MOs
 -- Occupied --
-10.2742 -10.2655 -10.2655  -0.8820  -0.7787  -0.6791  -0.5582  -0.5148
 -0.4869  -0.4702  -0.4176  -0.4055  -0.4035

                    Cartesian Multipole Moments
 -----------------------------------------------------------------
    Charge (ESU x 10^10)
                -0.0000
    Dipole Moment (Debye)
         X       0.0000      Y      -0.1889      Z      -0.0774
       Tot       0.2041
    Quadrupole Moments (Debye-Ang)
        XX     -22.1636     XY       0.0000     YY     -21.3857
        XZ       0.0000     YZ       0.3142     ZZ     -21.9102

 Total job time:  28.17s(wall), 75.81s(cpu)
        *  Thank you very much for using Q-Chem.  Have a nice day.  *
