 Q-Chem 5.3 (devel), Q-Chem, Inc., Pleasanton, CA (2020)
 Q-Chem 5.3.0 for Intel X86 EM64T Linux

User input:
--------------------------------------------------------------
$rem
   JOBTYPE  sp
   EXCHANGE   omegaB97X-D
   BASIS   6-311+G(2df,2pd)
   max_scf_cycles   250
   geom_opt_max_cycles   1500
   basis2 6-31G*
   scf_algorithm rca_diis
   SYM_IGNORE  TRUE
   print_input   true
   geom_opt_dmax   80
   pop_mulliken false
   XC_GRID 000075000302
$end

$molecule
0 1
C       1.3927729759     0.0000001957     0.2560828764
C       -0.0000000023     -0.0000000054     -0.7559405499
H       1.2929236475     -0.8630788188     0.9199303738
H       1.2929242994     0.8630786891     0.9199311261
H       2.4104836650     -0.0000001817     -0.1386617131
C       -1.3927731541     -0.0000002871     0.2560827812
H       0.0000009424     -0.8758379211     -1.4087901566
H       -0.0000004419     0.8758380751     -1.4087899348
H       -1.2929242753     -0.8630784575     0.9199314085
H       -2.4104839818     0.0000006675     -0.1386614303
H       -1.2929237354     0.8630787102     0.9199302376
$end
--------------------------------------------------------------

             Standard Nuclear Orientation (Angstroms)
    I     Atom           X                Y                Z
 ----------------------------------------------------------------
    1      C       1.3927729759     0.0000001957     0.2560828764
    2      C      -0.0000000023    -0.0000000054    -0.7559405499
    3      H       1.2929236475    -0.8630788188     0.9199303738
    4      H       1.2929242994     0.8630786891     0.9199311261
    5      H       2.4104836650    -0.0000001817    -0.1386617131
    6      C      -1.3927731541    -0.0000002871     0.2560827812
    7      H       0.0000009424    -0.8758379211    -1.4087901566
    8      H      -0.0000004419     0.8758380751    -1.4087899348
    9      H      -1.2929242753    -0.8630784575     0.9199314085
   10      H      -2.4104839818     0.0000006675    -0.1386614303
   11      H      -1.2929237354     0.8630787102     0.9199302376
 ----------------------------------------------------------------

    7    -119.0659179286      4.09E-06 Convergence criterion met
    5    -119.1084265339      8.84E-06 Convergence criterion met
 Total energy in the final basis set = -119.10842653

                    Orbital Energies (a.u.)
 --------------------------------------------------------------

 Alpha MOs
 -- Occupied --
-10.3057 -10.2812 -10.2812  -0.8386  -0.7684  -0.6956  -0.5214  -0.5112
 -0.4650  -0.4584  -0.4250  -0.4125  -0.4089

                    Cartesian Multipole Moments
 -----------------------------------------------------------------
    Charge (ESU x 10^10)
                -0.0000
    Dipole Moment (Debye)
         X       0.0000      Y       0.0000      Z       0.0636
       Tot       0.0636
    Quadrupole Moments (Debye-Ang)
        XX     -21.2508     XY      -0.0000     YY     -21.8200
        XZ      -0.0000     YZ      -0.0000     ZZ     -21.9045

 Total job time:  22.32s(wall), 61.83s(cpu)
        *  Thank you very much for using Q-Chem.  Have a nice day.  *
