 Q-Chem 5.3 (devel), Q-Chem, Inc., Pleasanton, CA (2020)
 Q-Chem 5.3.0 for Intel X86 EM64T Linux

User input:
--------------------------------------------------------------
$rem
   JOBTYPE  sp
   EXCHANGE   omegaB97X-D
   BASIS   6-311+G(2df,2pd)
   UNRESTRICTED   False
   max_scf_cycles   250
   geom_opt_max_cycles   1500
   basis2 6-31G*
   scf_algorithm rca_diis
   SYM_IGNORE  TRUE
   print_input   true
   geom_opt_dmax   80
   pop_mulliken false
   XC_GRID 000075000302
$end

$molecule
0 1
C       1.2659365889     -0.0536996754     0.2591136937
C       -0.0000000106     0.0000000961     -0.5877875463
H       1.3187834244     -0.9022203625     0.9437360532
H       1.2905726070     0.8577402011     0.8603901181
H       2.1629216637     -0.0220721959     -0.3601922594
C       -1.2659366414     0.0536995925     0.2591136712
H       0.1699523709     -0.8609734311     -1.2386312100
H       -0.1699525906     0.8609735541     -1.2386312621
H       -1.2905724373     -0.8577402070     0.8603902003
H       -2.1629216313     0.0220727379     -0.3601924164
H       -1.3187834043     0.9022203562     0.9437359765
$end
--------------------------------------------------------------

             Standard Nuclear Orientation (Angstroms)
    I     Atom           X                Y                Z
 ----------------------------------------------------------------
    1      C       1.2659365889    -0.0536996754     0.2591136937
    2      C      -0.0000000106     0.0000000961    -0.5877875463
    3      H       1.3187834244    -0.9022203625     0.9437360532
    4      H       1.2905726070     0.8577402011     0.8603901181
    5      H       2.1629216637    -0.0220721959    -0.3601922594
    6      C      -1.2659366414     0.0536995925     0.2591136712
    7      H       0.1699523709    -0.8609734311    -1.2386312100
    8      H      -0.1699525906     0.8609735541    -1.2386312621
    9      H      -1.2905724373    -0.8577402070     0.8603902003
   10      H      -2.1629216313     0.0220727379    -0.3601924164
   11      H      -1.3187834043     0.9022203562     0.9437359765
 ----------------------------------------------------------------

    7    -119.0907092424      4.98E-06 Convergence criterion met
    6    -119.1340637091      4.00E-06 Convergence criterion met
 Total energy in the final basis set = -119.13406371

                    Orbital Energies (a.u.)
 --------------------------------------------------------------

 Alpha MOs
 -- Occupied --
-10.2739 -10.2658 -10.2658  -0.8826  -0.7787  -0.6776  -0.5471  -0.5249
 -0.4889  -0.4660  -0.4274  -0.4141  -0.3892

                    Cartesian Multipole Moments
 -----------------------------------------------------------------
    Charge (ESU x 10^10)
                -0.0000
    Dipole Moment (Debye)
         X       0.0000      Y       0.0000      Z      -0.0673
       Tot       0.0673
    Quadrupole Moments (Debye-Ang)
        XX     -22.1053     XY      -0.4905     YY     -21.4323
        XZ       0.0000     YZ      -0.0000     ZZ     -21.9034

 Total job time:  27.30s(wall), 74.07s(cpu)
        *  Thank you very much for using Q-Chem.  Have a nice day.  *
