 Q-Chem 5.3 (devel), Q-Chem, Inc., Pleasanton, CA (2020)
 Q-Chem 5.3.0 for Intel X86 EM64T Linux

User input:
--------------------------------------------------------------
$rem
   JOBTYPE  sp
   EXCHANGE   omegaB97X-D
   BASIS   6-311+G(2df,2pd)
   UNRESTRICTED   False
   max_scf_cycles   250
   geom_opt_max_cycles   1500
   basis2 6-31G*
   scf_algorithm rca_diis
   SYM_IGNORE  TRUE
   print_input   true
   geom_opt_dmax   80
   pop_mulliken false
   XC_GRID 000075000302
$end

$molecule
0 1
C       1.2600296839     -0.1346229479     0.2611701140
C       0.0000001317     0.0000028819     -0.5855420936
H       1.5942534163     -1.1729298341     0.2862015636
H       1.0808662211     0.1783091083     1.2926315366
H       2.0772143548     0.4687386805     -0.1354232468
C       -1.2600295402     0.1346205521     0.2611712873
H       -0.0672969298     -0.8713289885     -1.2412922804
H       0.0672970414     0.8713412972     -1.2412838146
H       -1.0808612019     -0.1782999366     1.2926351430
H       -2.0772074236     -0.4687535109     -0.1354171731
H       -1.5942658142     1.1729233640     0.2861939829
$end
--------------------------------------------------------------

             Standard Nuclear Orientation (Angstroms)
    I     Atom           X                Y                Z
 ----------------------------------------------------------------
    1      C       1.2600296839    -0.1346229479     0.2611701140
    2      C       0.0000001317     0.0000028819    -0.5855420936
    3      H       1.5942534163    -1.1729298341     0.2862015636
    4      H       1.0808662211     0.1783091083     1.2926315366
    5      H       2.0772143548     0.4687386805    -0.1354232468
    6      C      -1.2600295402     0.1346205521     0.2611712873
    7      H      -0.0672969298    -0.8713289885    -1.2412922804
    8      H       0.0672970414     0.8713412972    -1.2412838146
    9      H      -1.0808612019    -0.1782999366     1.2926351430
   10      H      -2.0772074236    -0.4687535109    -0.1354171731
   11      H      -1.5942658142     1.1729233640     0.2861939829
 ----------------------------------------------------------------

    7    -119.0937112684      4.27E-06 Convergence criterion met
    6    -119.1369741201      3.96E-06 Convergence criterion met
 Total energy in the final basis set = -119.13697412

                    Orbital Energies (a.u.)
 --------------------------------------------------------------

 Alpha MOs
 -- Occupied --
-10.2718 -10.2637 -10.2637  -0.8810  -0.7764  -0.6776  -0.5444  -0.5268
 -0.4771  -0.4700  -0.4209  -0.4137  -0.3991

                    Cartesian Multipole Moments
 -----------------------------------------------------------------
    Charge (ESU x 10^10)
                 0.0000
    Dipole Moment (Debye)
         X      -0.0000      Y       0.0000      Z      -0.0896
       Tot       0.0896
    Quadrupole Moments (Debye-Ang)
        XX     -22.3484     XY       0.0875     YY     -21.2363
        XZ       0.0000     YZ       0.0000     ZZ     -21.8427

 Total job time:  27.58s(wall), 74.42s(cpu)
        *  Thank you very much for using Q-Chem.  Have a nice day.  *
