 Q-Chem 5.3 (devel), Q-Chem, Inc., Pleasanton, CA (2020)
 Q-Chem 5.3.0 for Intel X86 EM64T Linux

User input:
--------------------------------------------------------------
$rem
   JOBTYPE  sp
   EXCHANGE   omegaB97X-D
   BASIS   6-311+G(2df,2pd)
   max_scf_cycles   250
   geom_opt_max_cycles   1500
   basis2 6-31G*
   scf_algorithm rca_diis
   SYM_IGNORE  TRUE
   print_input   true
   geom_opt_dmax   80
   pop_mulliken false
   XC_GRID 000075000302
$end

$molecule
0 1
C       1.2636819140     -0.0000003369     0.2786252090
C       -0.0000000079     -0.0000007175     -0.5611116255
H       1.3150086198     -0.9083745096     0.8806026561
H       1.3150092263     0.9083741934     0.8806021341
H       2.1803752857     0.0000014251     -0.3142507447
C       -1.2636819110     -0.0000004723     0.2786251056
H       0.0000000799     -0.8295084749     -1.2745014229
H       0.0000000176     0.8295075229     -1.2745008516
H       -1.3150084378     -0.9083743009     0.8806030530
H       -2.1803752338     0.0000025144     -0.3142509096
H       -1.3150096136     0.9083738222     0.8806024154
$end
--------------------------------------------------------------

             Standard Nuclear Orientation (Angstroms)
    I     Atom           X                Y                Z
 ----------------------------------------------------------------
    1      C       1.2636819140    -0.0000003369     0.2786252090
    2      C      -0.0000000079    -0.0000007175    -0.5611116255
    3      H       1.3150086198    -0.9083745096     0.8806026561
    4      H       1.3150092263     0.9083741934     0.8806021341
    5      H       2.1803752857     0.0000014251    -0.3142507447
    6      C      -1.2636819110    -0.0000004723     0.2786251056
    7      H       0.0000000799    -0.8295084749    -1.2745014229
    8      H       0.0000000176     0.8295075229    -1.2745008516
    9      H      -1.3150084378    -0.9083743009     0.8806030530
   10      H      -2.1803752338     0.0000025144    -0.3142509096
   11      H      -1.3150096136     0.9083738222     0.8806024154
 ----------------------------------------------------------------

    7    -119.0994276812      4.83E-06 Convergence criterion met
    6    -119.1426060815      3.78E-06 Convergence criterion met
 Total energy in the final basis set = -119.14260608

                    Orbital Energies (a.u.)
 --------------------------------------------------------------

 Alpha MOs
 -- Occupied --
-10.2730 -10.2654 -10.2654  -0.8822  -0.7784  -0.6798  -0.5454  -0.5271
 -0.4729  -0.4725  -0.4222  -0.4161  -0.4022

                    Cartesian Multipole Moments
 -----------------------------------------------------------------
    Charge (ESU x 10^10)
                -0.0000
    Dipole Moment (Debye)
         X       0.0000      Y       0.0000      Z      -0.1483
       Tot       0.1483
    Quadrupole Moments (Debye-Ang)
        XX     -21.9199     XY      -0.0000     YY     -21.2703
        XZ      -0.0000     YZ      -0.0000     ZZ     -22.0231

 Total job time:  27.47s(wall), 74.26s(cpu)
        *  Thank you very much for using Q-Chem.  Have a nice day.  *
