 Q-Chem 5.3 (devel), Q-Chem, Inc., Pleasanton, CA (2020)
 Q-Chem 5.3.0 for Intel X86 EM64T Linux

User input:
--------------------------------------------------------------
$rem
   JOBTYPE  sp
   EXCHANGE   omegaB97X-D
   BASIS   6-311+G(2df,2pd)
   max_scf_cycles   250
   geom_opt_max_cycles   1500
   basis2 6-31G*
   scf_algorithm rca_diis
   SYM_IGNORE  TRUE
   print_input   true
   geom_opt_dmax   80
   pop_mulliken false
   XC_GRID 000075000302
$end

$molecule
0 1
C       1.1590879337     -0.0000001687     0.2653221411
C       -0.0000000063     0.0000000049     -0.4574653366
H       1.3010924295     -0.8899213010     0.8796015174
H       1.3010918381     0.8899214098     0.8796010278
H       1.9254380687     0.0000001318     -0.5091989291
C       -1.1590878273     0.0000001999     0.2653222040
H       -0.0000008217     -0.8719849858     -1.1160703407
H       0.0000002742     0.8719848639     -1.1160705158
H       -1.3010918299     -0.8899215604     0.8796007683
H       -1.9254377250     0.0000006969     -0.5091991094
H       -1.3010923946     0.8899213747     0.8796015920
$end
--------------------------------------------------------------

             Standard Nuclear Orientation (Angstroms)
    I     Atom           X                Y                Z
 ----------------------------------------------------------------
    1      C       1.1590879337    -0.0000001687     0.2653221411
    2      C      -0.0000000063     0.0000000049    -0.4574653366
    3      H       1.3010924295    -0.8899213010     0.8796015174
    4      H       1.3010918381     0.8899214098     0.8796010278
    5      H       1.9254380687     0.0000001318    -0.5091989291
    6      C      -1.1590878273     0.0000001999     0.2653222040
    7      H      -0.0000008217    -0.8719849858    -1.1160703407
    8      H       0.0000002742     0.8719848639    -1.1160705158
    9      H      -1.3010918299    -0.8899215604     0.8796007683
   10      H      -1.9254377250     0.0000006969    -0.5091991094
   11      H      -1.3010923946     0.8899213747     0.8796015920
 ----------------------------------------------------------------

    7    -119.0576035971      5.11E-06 Convergence criterion met
    6    -119.1039131614      2.86E-06 Convergence criterion met
 Total energy in the final basis set = -119.10391316

                    Orbital Energies (a.u.)
 --------------------------------------------------------------

 Alpha MOs
 -- Occupied --
-10.2496 -10.2495 -10.2471  -0.9311  -0.7942  -0.6642  -0.5751  -0.5460
 -0.5126  -0.4670  -0.4158  -0.4061  -0.3903

                    Cartesian Multipole Moments
 -----------------------------------------------------------------
    Charge (ESU x 10^10)
                 0.0000
    Dipole Moment (Debye)
         X       0.0000      Y       0.0000      Z      -0.1935
       Tot       0.1935
    Quadrupole Moments (Debye-Ang)
        XX     -23.0081     XY      -0.0000     YY     -21.0188
        XZ       0.0000     YZ      -0.0000     ZZ     -21.6496

 Total job time:  28.63s(wall), 77.52s(cpu)
        *  Thank you very much for using Q-Chem.  Have a nice day.  *
