 Q-Chem 5.3 (devel), Q-Chem, Inc., Pleasanton, CA (2020)
 Q-Chem 5.3.0 for Intel X86 EM64T Linux

User input:
--------------------------------------------------------------
$rem
   JOBTYPE  sp
   EXCHANGE   omegaB97X-D
   BASIS   6-311+G(2df,2pd)
   UNRESTRICTED   False
   max_scf_cycles   250
   geom_opt_max_cycles   1500
   basis2 6-31G*
   scf_algorithm rca_diis
   SYM_IGNORE  TRUE
   print_input   true
   geom_opt_dmax   80
   pop_mulliken false
   XC_GRID 000075000302
$end

$molecule
0 1
C       1.2488400124     0.0000026122     0.2574843512
C       -0.0000016835     0.0000007750     -0.6391348668
H       1.3290429396     -0.9708087005     0.7436052193
H       1.3290322940     0.9708130664     0.7436076788
H       2.2154002869     -0.0000094909     -0.2621427743
C       -1.2488438321     -0.0000018640     0.2574805898
H       0.0000013842     -1.0237111021     -0.9924703122
H       0.0000012681     1.0237123814     -0.9924712383
H       -1.3290331081     -0.9708037596     0.7436223295
H       -2.2153978012     0.0000064813     -0.2621570222
H       -1.3290418208     0.9708002669     0.7436210642
$end
--------------------------------------------------------------

             Standard Nuclear Orientation (Angstroms)
    I     Atom           X                Y                Z
 ----------------------------------------------------------------
    1      C       1.2488400124     0.0000026122     0.2574843512
    2      C      -0.0000016835     0.0000007750    -0.6391348668
    3      H       1.3290429396    -0.9708087005     0.7436052193
    4      H       1.3290322940     0.9708130664     0.7436076788
    5      H       2.2154002869    -0.0000094909    -0.2621427743
    6      C      -1.2488438321    -0.0000018640     0.2574805898
    7      H       0.0000013842    -1.0237111021    -0.9924703122
    8      H       0.0000012681     1.0237123814    -0.9924712383
    9      H      -1.3290331081    -0.9708037596     0.7436223295
   10      H      -2.2153978012     0.0000064813    -0.2621570222
   11      H      -1.3290418208     0.9708002669     0.7436210642
 ----------------------------------------------------------------

    7    -119.0477103281      9.00E-06 Convergence criterion met
    5    -119.0931388472      9.14E-06 Convergence criterion met
 Total energy in the final basis set = -119.09313885

                    Orbital Energies (a.u.)
 --------------------------------------------------------------

 Alpha MOs
 -- Occupied --
-10.2776 -10.2646 -10.2646  -0.8885  -0.7790  -0.6703  -0.5923  -0.5024
 -0.4949  -0.4487  -0.4407  -0.4137  -0.3664

                    Cartesian Multipole Moments
 -----------------------------------------------------------------
    Charge (ESU x 10^10)
                -0.0000
    Dipole Moment (Debye)
         X       0.0000      Y      -0.0000      Z      -0.0857
       Tot       0.0857
    Quadrupole Moments (Debye-Ang)
        XX     -21.9869     XY      -0.0001     YY     -19.7876
        XZ      -0.0000     YZ       0.0000     ZZ     -24.2442

 Total job time:  25.42s(wall), 68.35s(cpu)
        *  Thank you very much for using Q-Chem.  Have a nice day.  *
