 Q-Chem 5.3 (devel), Q-Chem, Inc., Pleasanton, CA (2020)
 Q-Chem 5.3.0 for Intel X86 EM64T Linux

User input:
--------------------------------------------------------------
$rem
   JOBTYPE  sp
   EXCHANGE   omegaB97X-D
   BASIS   6-311+G(2df,2pd)
   UNRESTRICTED   False
   max_scf_cycles   250
   geom_opt_max_cycles   1500
   basis2 6-31G*
   scf_algorithm rca_diis
   SYM_IGNORE  TRUE
   print_input   true
   geom_opt_dmax   80
   pop_mulliken false
   XC_GRID 000075000302
$end

$molecule
0 1
C       1.2618669039     -0.0476711252     0.2595405131
C       -0.0000000048     -0.0845122097     -0.5943068225
H       1.3784572794     -0.8509975228     0.9880555906
H       1.2117738764     0.8951678908     0.8102108101
H       2.1597379433     -0.0009754863     -0.3575247152
C       -1.2618669103     -0.0476714659     0.2595406100
H       0.0000002906     -0.8131055061     -1.4052037197
H       -0.0000004408     0.9065705548     -1.0600088494
H       -1.3784577012     -0.8509977632     0.9880556435
H       -2.1597377800     -0.0009744053     -0.3575247436
H       -1.2117735170     0.8951677048     0.8102107019
$end
--------------------------------------------------------------

             Standard Nuclear Orientation (Angstroms)
    I     Atom           X                Y                Z
 ----------------------------------------------------------------
    1      C       1.2618669039    -0.0476711252     0.2595405131
    2      C      -0.0000000048    -0.0845122097    -0.5943068225
    3      H       1.3784572794    -0.8509975228     0.9880555906
    4      H       1.2117738764     0.8951678908     0.8102108101
    5      H       2.1597379433    -0.0009754863    -0.3575247152
    6      C      -1.2618669103    -0.0476714659     0.2595406100
    7      H       0.0000002906    -0.8131055061    -1.4052037197
    8      H      -0.0000004408     0.9065705548    -1.0600088494
    9      H      -1.3784577012    -0.8509977632     0.9880556435
   10      H      -2.1597377800    -0.0009744053    -0.3575247436
   11      H      -1.2117735170     0.8951677048     0.8102107019
 ----------------------------------------------------------------

    7    -119.0958122479      4.58E-06 Convergence criterion met
    6    -119.1389561515      3.84E-06 Convergence criterion met
 Total energy in the final basis set = -119.13895615

                    Orbital Energies (a.u.)
 --------------------------------------------------------------

 Alpha MOs
 -- Occupied --
-10.2746 -10.2656 -10.2656  -0.8837  -0.7772  -0.6772  -0.5494  -0.5229
 -0.4853  -0.4606  -0.4209  -0.4172  -0.4029

                    Cartesian Multipole Moments
 -----------------------------------------------------------------
    Charge (ESU x 10^10)
                -0.0000
    Dipole Moment (Debye)
         X      -0.0000      Y       0.1145      Z      -0.0923
       Tot       0.1471
    Quadrupole Moments (Debye-Ang)
        XX     -22.1924     XY      -0.0000     YY     -21.4267
        XZ      -0.0000     YZ      -0.0331     ZZ     -21.8163

 Total job time:  27.10s(wall), 73.74s(cpu)
        *  Thank you very much for using Q-Chem.  Have a nice day.  *
