 Q-Chem 5.3 (devel), Q-Chem, Inc., Pleasanton, CA (2020)
 Q-Chem 5.3.0 for Intel X86 EM64T Linux

User input:
--------------------------------------------------------------
$rem
   JOBTYPE  sp
   EXCHANGE   omegaB97X-D
   BASIS   6-311+G(2df,2pd)
   max_scf_cycles   250
   geom_opt_max_cycles   1500
   basis2 6-31G*
   scf_algorithm rca_diis
   SYM_IGNORE  TRUE
   print_input   true
   geom_opt_dmax   80
   pop_mulliken false
   XC_GRID 000075000302
$end

$molecule
0 1
C       1.2959529968     -0.0000000402     0.2653525328
C       0.0047350775     0.0000000962     -0.5863339062
H       1.2685939944     -0.8921835773     0.8920097442
H       1.2685941422     0.8921835046     0.8920097485
H       2.1566293756     -0.0000000000     -0.4016014370
C       -1.2388505364     0.0000001221     0.2547120448
H       0.0453669416     -0.8732268772     -1.2417577353
H       0.0453667817     0.8732270164     -1.2417578056
H       -1.3387309594     -0.8669167320     0.9130384634
H       -2.1689273332     0.0000002317     -0.3176652004
H       -1.3387305416     0.8669169218     0.9130385698
$end
--------------------------------------------------------------

             Standard Nuclear Orientation (Angstroms)
    I     Atom           X                Y                Z
 ----------------------------------------------------------------
    1      C       1.2959529968    -0.0000000402     0.2653525328
    2      C       0.0047350775     0.0000000962    -0.5863339062
    3      H       1.2685939944    -0.8921835773     0.8920097442
    4      H       1.2685941422     0.8921835046     0.8920097485
    5      H       2.1566293756     0.0000000000    -0.4016014370
    6      C      -1.2388505364     0.0000001221     0.2547120448
    7      H       0.0453669416    -0.8732268772    -1.2417577353
    8      H       0.0453667817     0.8732270164    -1.2417578056
    9      H      -1.3387309594    -0.8669167320     0.9130384634
   10      H      -2.1689273332     0.0000002317    -0.3176652004
   11      H      -1.3387305416     0.8669169218     0.9130385698
 ----------------------------------------------------------------

    7    -119.0997271203      4.72E-06 Convergence criterion met
    6    -119.1428332240      4.15E-06 Convergence criterion met
 Total energy in the final basis set = -119.14283322

                    Orbital Energies (a.u.)
 --------------------------------------------------------------

 Alpha MOs
 -- Occupied --
-10.2741 -10.2659 -10.2647  -0.8817  -0.7776  -0.6779  -0.5460  -0.5266
 -0.4807  -0.4635  -0.4303  -0.4071  -0.4056

                    Cartesian Multipole Moments
 -----------------------------------------------------------------
    Charge (ESU x 10^10)
                 0.0000
    Dipole Moment (Debye)
         X      -0.0630      Y      -0.0000      Z      -0.0914
       Tot       0.1110
    Quadrupole Moments (Debye-Ang)
        XX     -22.1747     XY       0.0000     YY     -21.3761
        XZ      -0.4899     YZ      -0.0000     ZZ     -21.8622

 Total job time:  26.43s(wall), 72.43s(cpu)
        *  Thank you very much for using Q-Chem.  Have a nice day.  *
