 Q-Chem 5.3 (devel), Q-Chem, Inc., Pleasanton, CA (2020)
 Q-Chem 5.3.0 for Intel X86 EM64T Linux

User input:
--------------------------------------------------------------
$rem
   JOBTYPE  sp
   EXCHANGE   omegaB97X-D
   BASIS   6-311+G(2df,2pd)
   UNRESTRICTED   False
   max_scf_cycles   250
   geom_opt_max_cycles   1500
   basis2 6-31G*
   scf_algorithm rca_diis
   SYM_IGNORE  TRUE
   print_input   true
   geom_opt_dmax   80
   pop_mulliken false
   XC_GRID 000075000302
$end

$molecule
0 1
C       1.2589297861     -0.0000000345     0.2378476498
C       -0.0000008833     -0.0000001440     -0.6006974138
H       1.3087072510     -0.9886144335     0.9668748297
H       1.3087071303     0.9886142721     0.9668748080
H       2.2564037525     0.0000000213     -0.4395443537
C       -1.2589318745     -0.0000003348     0.2378490425
H       -0.0000010866     -0.8784181325     -1.2611795517
H       -0.0000012347     0.8784181978     -1.2611797484
H       -1.3087077844     -0.9886040649     0.9668679896
H       -2.2563971824     0.0000004836     -0.4395370995
H       -1.3087079345     0.9886048355     0.9668688665
$end
--------------------------------------------------------------

             Standard Nuclear Orientation (Angstroms)
    I     Atom           X                Y                Z
 ----------------------------------------------------------------
    1      C       1.2589297861    -0.0000000345     0.2378476498
    2      C      -0.0000008833    -0.0000001440    -0.6006974138
    3      H       1.3087072510    -0.9886144335     0.9668748297
    4      H       1.3087071303     0.9886142721     0.9668748080
    5      H       2.2564037525     0.0000000213    -0.4395443537
    6      C      -1.2589318745    -0.0000003348     0.2378490425
    7      H      -0.0000010866    -0.8784181325    -1.2611795517
    8      H      -0.0000012347     0.8784181978    -1.2611797484
    9      H      -1.3087077844    -0.9886040649     0.9668679896
   10      H      -2.2563971824     0.0000004836    -0.4395370995
   11      H      -1.3087079345     0.9886048355     0.9668688665
 ----------------------------------------------------------------

    6    -119.0565300584      9.18E-05 Convergence criterion met
    5    -119.0967819193      7.12E-06 Convergence criterion met
 Total energy in the final basis set = -119.09678192

                    Orbital Energies (a.u.)
 --------------------------------------------------------------

 Alpha MOs
 -- Occupied --
-10.3070 -10.3070 -10.2829  -0.8793  -0.7510  -0.6591  -0.5393  -0.5150
 -0.4703  -0.4379  -0.4134  -0.4132  -0.3983

                    Cartesian Multipole Moments
 -----------------------------------------------------------------
    Charge (ESU x 10^10)
                 0.0000
    Dipole Moment (Debye)
         X      -0.0000      Y      -0.0000      Z      -0.3162
       Tot       0.3162
    Quadrupole Moments (Debye-Ang)
        XX     -23.1455     XY       0.0000     YY     -21.9227
        XZ      -0.0000     YZ      -0.0000     ZZ     -22.3889

 Total job time:  24.48s(wall), 65.71s(cpu)
        *  Thank you very much for using Q-Chem.  Have a nice day.  *
