 Q-Chem 5.3 (devel), Q-Chem, Inc., Pleasanton, CA (2020)
 Q-Chem 5.3.0 for Intel X86 EM64T Linux

User input:
--------------------------------------------------------------
$rem
   JOBTYPE  sp
   EXCHANGE   omegaB97X-D
   BASIS   6-311+G(2df,2pd)
   max_scf_cycles   250
   geom_opt_max_cycles   1500
   basis2 6-31G*
   scf_algorithm rca_diis
   SYM_IGNORE  TRUE
   print_input   true
   geom_opt_dmax   80
   pop_mulliken false
   XC_GRID 000075000302
$end

$molecule
0 1
C       1.2662997603     -0.0916199364     0.2314528963
C       -0.0000002936     0.3141618158     -0.5132248758
H       0.9717323982     -0.5566824344     1.1759128243
H       1.9225947541     0.7466003592     0.4680120348
H       1.8456046928     -0.8242122226     -0.3314295187
C       -1.2662991097     -0.0916246509     0.2314527492
H       0.0000007037     -0.2369603455     -1.4563032552
H       -0.0000024250     1.3746500960     -0.7773185895
H       -0.9717327201     -0.5567097838     1.1759015584
H       -1.8456134119     -0.8241995973     -0.3314428059
H       -1.9225844093     0.7465973660     0.4680320010
$end
--------------------------------------------------------------

             Standard Nuclear Orientation (Angstroms)
    I     Atom           X                Y                Z
 ----------------------------------------------------------------
    1      C       1.2662997603    -0.0916199364     0.2314528963
    2      C      -0.0000002936     0.3141618158    -0.5132248758
    3      H       0.9717323982    -0.5566824344     1.1759128243
    4      H       1.9225947541     0.7466003592     0.4680120348
    5      H       1.8456046928    -0.8242122226    -0.3314295187
    6      C      -1.2662991097    -0.0916246509     0.2314527492
    7      H       0.0000007037    -0.2369603455    -1.4563032552
    8      H      -0.0000024250     1.3746500960    -0.7773185895
    9      H      -0.9717327201    -0.5567097838     1.1759015584
   10      H      -1.8456134119    -0.8241995973    -0.3314428059
   11      H      -1.9225844093     0.7465973660     0.4680320010
 ----------------------------------------------------------------

    7    -119.0893213931      4.12E-06 Convergence criterion met
    6    -119.1328930474      4.08E-06 Convergence criterion met
 Total energy in the final basis set = -119.13289305

                    Orbital Energies (a.u.)
 --------------------------------------------------------------

 Alpha MOs
 -- Occupied --
-10.2715 -10.2635 -10.2634  -0.8821  -0.7755  -0.6786  -0.5442  -0.5325
 -0.4718  -0.4686  -0.4196  -0.4164  -0.3982

                    Cartesian Multipole Moments
 -----------------------------------------------------------------
    Charge (ESU x 10^10)
                -0.0000
    Dipole Moment (Debye)
         X      -0.0000      Y       0.0147      Z      -0.0915
       Tot       0.0927
    Quadrupole Moments (Debye-Ang)
        XX     -22.2897     XY      -0.0000     YY     -21.3121
        XZ      -0.0000     YZ       0.3044     ZZ     -21.8558

 Total job time:  28.36s(wall), 76.18s(cpu)
        *  Thank you very much for using Q-Chem.  Have a nice day.  *
