 Q-Chem 5.3 (devel), Q-Chem, Inc., Pleasanton, CA (2020)
 Q-Chem 5.3.0 for Intel X86 EM64T Linux

User input:
--------------------------------------------------------------
$rem
   JOBTYPE  sp
   EXCHANGE   omegaB97X-D
   BASIS   6-311+G(2df,2pd)
   max_scf_cycles   250
   geom_opt_max_cycles   1500
   basis2 6-31G*
   scf_algorithm rca_diis
   SYM_IGNORE  TRUE
   print_input   true
   geom_opt_dmax   80
   pop_mulliken false
   XC_GRID 000075000302
$end

$molecule
0 1
C       1.4717693275     -0.0000006604     0.2655098301
C       -0.0000001470     0.0000029734     -0.2234182026
H       1.7953780405     -0.8854702016     0.8136800095
H       1.7953843165     0.8854663223     0.8136804169
H       2.0066933287     -0.0000040030     -0.6887778835
C       -1.4717696843     0.0000008538     0.2655094525
H       0.0000008814     -0.8436514012     -0.9218623109
H       -0.0000003331     0.8436601622     -0.9218589312
H       -1.7953771442     -0.8854654624     0.8136855470
H       -2.0066940808     -0.0000090064     -0.6887777553
H       -1.7953845659     0.8854710893     0.8136748462
$end
--------------------------------------------------------------

             Standard Nuclear Orientation (Angstroms)
    I     Atom           X                Y                Z
 ----------------------------------------------------------------
    1      C       1.4717693275    -0.0000006604     0.2655098301
    2      C      -0.0000001470     0.0000029734    -0.2234182026
    3      H       1.7953780405    -0.8854702016     0.8136800095
    4      H       1.7953843165     0.8854663223     0.8136804169
    5      H       2.0066933287    -0.0000040030    -0.6887778835
    6      C      -1.4717696843     0.0000008538     0.2655094525
    7      H       0.0000008814    -0.8436514012    -0.9218623109
    8      H      -0.0000003331     0.8436601622    -0.9218589312
    9      H      -1.7953771442    -0.8854654624     0.8136855470
   10      H      -2.0066940808    -0.0000090064    -0.6887777553
   11      H      -1.7953845659     0.8854710893     0.8136748462
 ----------------------------------------------------------------

    7    -119.0717168480      4.17E-06 Convergence criterion met
    6    -119.1150056749      4.20E-06 Convergence criterion met
 Total energy in the final basis set = -119.11500567

                    Orbital Energies (a.u.)
 --------------------------------------------------------------

 Alpha MOs
 -- Occupied --
-10.2787 -10.2729 -10.2729  -0.8735  -0.7915  -0.6724  -0.5369  -0.5072
 -0.4995  -0.4755  -0.4285  -0.3984  -0.3916

                    Cartesian Multipole Moments
 -----------------------------------------------------------------
    Charge (ESU x 10^10)
                -0.0000
    Dipole Moment (Debye)
         X       0.0000      Y      -0.0000      Z      -0.2473
       Tot       0.2473
    Quadrupole Moments (Debye-Ang)
        XX     -21.8110     XY      -0.0000     YY     -21.4935
        XZ       0.0000     YZ       0.0000     ZZ     -21.7981

 Total job time:  26.31s(wall), 70.79s(cpu)
        *  Thank you very much for using Q-Chem.  Have a nice day.  *
