 Q-Chem 5.3 (devel), Q-Chem, Inc., Pleasanton, CA (2020)
 Q-Chem 5.3.0 for Intel X86 EM64T Linux

User input:
--------------------------------------------------------------
$rem
   JOBTYPE  sp
   EXCHANGE   omegaB97X-D
   BASIS   6-311+G(2df,2pd)
   UNRESTRICTED   False
   max_scf_cycles   250
   geom_opt_max_cycles   1500
   basis2 6-31G*
   scf_algorithm rca_diis
   SYM_IGNORE  TRUE
   print_input   true
   geom_opt_dmax   80
   pop_mulliken false
   XC_GRID 000075000302
$end

$molecule
0 1
C       1.3549026260     0.0000000021     0.3710899976
C       0.2381247715     -0.0000000092     -0.5533404485
H       1.3291125435     -0.9509303195     0.8924408400
H       1.3291125610     0.9509303191     0.8924408508
H       2.1259621718     -0.0000000084     -0.3960694885
C       -1.2027303200     -0.0000000138     0.1385075939
H       -0.1656560677     -0.7904492211     -1.1904493949
H       -0.1656560677     0.7904492864     -1.1904492705
H       -1.3418127537     -0.7957275518     0.8836148387
H       -2.1595468416     0.0000005875     -0.3903552232
H       -1.3418126838     0.7957275948     0.8836147234
$end
--------------------------------------------------------------

             Standard Nuclear Orientation (Angstroms)
    I     Atom           X                Y                Z
 ----------------------------------------------------------------
    1      C       1.3549026260     0.0000000021     0.3710899976
    2      C       0.2381247715    -0.0000000092    -0.5533404485
    3      H       1.3291125435    -0.9509303195     0.8924408400
    4      H       1.3291125610     0.9509303191     0.8924408508
    5      H       2.1259621718    -0.0000000084    -0.3960694885
    6      C      -1.2027303200    -0.0000000138     0.1385075939
    7      H      -0.1656560677    -0.7904492211    -1.1904493949
    8      H      -0.1656560677     0.7904492864    -1.1904492705
    9      H      -1.3418127537    -0.7957275518     0.8836148387
   10      H      -2.1595468416     0.0000005875    -0.3903552232
   11      H      -1.3418126838     0.7957275948     0.8836147234
 ----------------------------------------------------------------

    7    -119.0279454471      7.47E-06 Convergence criterion met
    5    -119.0739671371      9.09E-06 Convergence criterion met
 Total energy in the final basis set = -119.07396714

                    Orbital Energies (a.u.)
 --------------------------------------------------------------

 Alpha MOs
 -- Occupied --
-10.2764 -10.2752 -10.2626  -0.8949  -0.7902  -0.6863  -0.5522  -0.5262
 -0.5038  -0.4649  -0.4368  -0.3809  -0.3748

                    Cartesian Multipole Moments
 -----------------------------------------------------------------
    Charge (ESU x 10^10)
                -0.0000
    Dipole Moment (Debye)
         X       0.0443      Y       0.0000      Z      -0.0166
       Tot       0.0473
    Quadrupole Moments (Debye-Ang)
        XX     -22.0803     XY      -0.0000     YY     -21.7910
        XZ       0.5134     YZ      -0.0000     ZZ     -22.1138

 Total job time:  25.17s(wall), 67.47s(cpu)
        *  Thank you very much for using Q-Chem.  Have a nice day.  *
