 Q-Chem 5.3 (devel), Q-Chem, Inc., Pleasanton, CA (2020)
 Q-Chem 5.3.0 for Intel X86 EM64T Linux

User input:
--------------------------------------------------------------
$rem
   JOBTYPE  sp
   EXCHANGE   omegaB97X-D
   BASIS   6-311+G(2df,2pd)
   max_scf_cycles   250
   geom_opt_max_cycles   1500
   basis2 6-31G*
   scf_algorithm rca_diis
   SYM_IGNORE  TRUE
   print_input   true
   geom_opt_dmax   80
   pop_mulliken false
   XC_GRID 000075000302
$end

$molecule
0 1
C       1.2845563070     0.0000000087     0.2729554212
C       -0.0269834238     -0.0000000047     -0.5869778116
H       1.3223297885     -0.8785613211     0.9211163110
H       1.3223297790     0.8785613400     0.9211163097
H       2.1870401139     0.0000000078     -0.3391302601
C       -1.2502888776     -0.0000000540     0.2456466872
H       -0.0595057223     -0.8736367522     -1.2423081335
H       -0.0595057442     0.8736367461     -1.2423081219
H       -1.2887559979     -0.8827316818     0.8861519817
H       -2.1424602881     0.0000007312     -0.3813693165
H       -1.2887559951     0.8827316461     0.8861519518
$end
--------------------------------------------------------------

             Standard Nuclear Orientation (Angstroms)
    I     Atom           X                Y                Z
 ----------------------------------------------------------------
    1      C       1.2845563070     0.0000000087     0.2729554212
    2      C      -0.0269834238    -0.0000000047    -0.5869778116
    3      H       1.3223297885    -0.8785613211     0.9211163110
    4      H       1.3223297790     0.8785613400     0.9211163097
    5      H       2.1870401139     0.0000000078    -0.3391302601
    6      C      -1.2502888776    -0.0000000540     0.2456466872
    7      H      -0.0595057223    -0.8736367522    -1.2423081335
    8      H      -0.0595057442     0.8736367461    -1.2423081219
    9      H      -1.2887559979    -0.8827316818     0.8861519817
   10      H      -2.1424602881     0.0000007312    -0.3813693165
   11      H      -1.2887559951     0.8827316461     0.8861519518
 ----------------------------------------------------------------

    7    -119.1005949494      4.61E-06 Convergence criterion met
    6    -119.1436189955      3.99E-06 Convergence criterion met
 Total energy in the final basis set = -119.14361900

                    Orbital Energies (a.u.)
 --------------------------------------------------------------

 Alpha MOs
 -- Occupied --
-10.2739 -10.2684 -10.2617  -0.8826  -0.7770  -0.6773  -0.5465  -0.5248
 -0.4825  -0.4637  -0.4248  -0.4114  -0.4069

                    Cartesian Multipole Moments
 -----------------------------------------------------------------
    Charge (ESU x 10^10)
                 0.0000
    Dipole Moment (Debye)
         X      -0.0253      Y       0.0000      Z      -0.0850
       Tot       0.0887
    Quadrupole Moments (Debye-Ang)
        XX     -22.1576     XY      -0.0000     YY     -21.3623
        XZ       0.2086     YZ      -0.0000     ZZ     -21.8451

 Total job time:  26.90s(wall), 73.16s(cpu)
        *  Thank you very much for using Q-Chem.  Have a nice day.  *
