 Q-Chem 5.3 (devel), Q-Chem, Inc., Pleasanton, CA (2020)
 Q-Chem 5.3.0 for Intel X86 EM64T Linux

User input:
--------------------------------------------------------------
$rem
   JOBTYPE  sp
   EXCHANGE   omegaB97X-D
   BASIS   6-311+G(2df,2pd)
   UNRESTRICTED   False
   max_scf_cycles   250
   geom_opt_max_cycles   1500
   basis2 6-31G*
   scf_algorithm rca_diis
   SYM_IGNORE  TRUE
   print_input   true
   geom_opt_dmax   80
   pop_mulliken false
   XC_GRID 000075000302
$end

$molecule
0 1
C       1.2530749838     -0.1886643798     0.2625305979
C       0.0000002775     0.0000040593     -0.5841853581
H       1.7130046401     -1.1542917651     0.0486678620
H       1.0221118734     -0.1634356210     1.3305492972
H       1.9947916990     0.5848031948     0.0607224213
C       -1.2530747950     0.1886612234     0.2625326439
H       -0.0945047349     -0.8688518516     -1.2398640407
H       0.0945052763     0.8688690811     -1.2398522707
H       -1.0221088846     0.1634498113     1.3305508430
H       -1.9947789127     -0.5848208602     0.0607336898
H       -1.7130214835     1.1542777737     0.0486593333
$end
--------------------------------------------------------------

             Standard Nuclear Orientation (Angstroms)
    I     Atom           X                Y                Z
 ----------------------------------------------------------------
    1      C       1.2530749838    -0.1886643798     0.2625305979
    2      C       0.0000002775     0.0000040593    -0.5841853581
    3      H       1.7130046401    -1.1542917651     0.0486678620
    4      H       1.0221118734    -0.1634356210     1.3305492972
    5      H       1.9947916990     0.5848031948     0.0607224213
    6      C      -1.2530747950     0.1886612234     0.2625326439
    7      H      -0.0945047349    -0.8688518516    -1.2398640407
    8      H       0.0945052763     0.8688690811    -1.2398522707
    9      H      -1.0221088846     0.1634498113     1.3305508430
   10      H      -1.9947789127    -0.5848208602     0.0607336898
   11      H      -1.7130214835     1.1542777737     0.0486593333
 ----------------------------------------------------------------

    7    -119.0907133818      4.17E-06 Convergence criterion met
    6    -119.1341425034      3.95E-06 Convergence criterion met
 Total energy in the final basis set = -119.13414250

                    Orbital Energies (a.u.)
 --------------------------------------------------------------

 Alpha MOs
 -- Occupied --
-10.2713 -10.2631 -10.2631  -0.8809  -0.7762  -0.6776  -0.5444  -0.5277
 -0.4754  -0.4707  -0.4225  -0.4113  -0.3976

                    Cartesian Multipole Moments
 -----------------------------------------------------------------
    Charge (ESU x 10^10)
                -0.0000
    Dipole Moment (Debye)
         X      -0.0000      Y       0.0000      Z      -0.0973
       Tot       0.0973
    Quadrupole Moments (Debye-Ang)
        XX     -22.4289     XY       0.1337     YY     -21.2104
        XZ       0.0000     YZ       0.0000     ZZ     -21.8136

 Total job time:  27.73s(wall), 75.42s(cpu)
        *  Thank you very much for using Q-Chem.  Have a nice day.  *
