 Q-Chem 5.3 (devel), Q-Chem, Inc., Pleasanton, CA (2020)
 Q-Chem 5.3.0 for Intel X86 EM64T Linux

User input:
--------------------------------------------------------------
$rem
   JOBTYPE  sp
   EXCHANGE   omegaB97X-D
   BASIS   6-311+G(2df,2pd)
   UNRESTRICTED   False
   max_scf_cycles   250
   geom_opt_max_cycles   1500
   basis2 6-31G*
   scf_algorithm rca_diis
   SYM_IGNORE  TRUE
   print_input   true
   geom_opt_dmax   80
   pop_mulliken false
   XC_GRID 000075000302
$end

$molecule
0 1
C       1.3022948191     -0.0000001319     0.2601007082
C       -0.0000000219     0.0000005525     -0.5389220405
H       1.3842186266     -0.8818709532     0.8983423032
H       1.3842197784     0.8818704574     0.8983424731
H       2.1573492806     -0.0000008261     -0.4174690563
C       -1.3022948829     0.0000000774     0.2601006594
H       0.0000001283     -0.8708866841     -1.1993330495
H       -0.0000001156     0.8708880668     -1.1993326866
H       -1.3842183082     -0.8818702043     0.8983430233
H       -2.1573493743     -0.0000008846     -0.4174690103
H       -1.3842199907     0.8818711961     0.8983416952
$end
--------------------------------------------------------------

             Standard Nuclear Orientation (Angstroms)
    I     Atom           X                Y                Z
 ----------------------------------------------------------------
    1      C       1.3022948191    -0.0000001319     0.2601007082
    2      C      -0.0000000219     0.0000005525    -0.5389220405
    3      H       1.3842186266    -0.8818709532     0.8983423032
    4      H       1.3842197784     0.8818704574     0.8983424731
    5      H       2.1573492806    -0.0000008261    -0.4174690563
    6      C      -1.3022948829     0.0000000774     0.2601006594
    7      H       0.0000001283    -0.8708866841    -1.1993330495
    8      H      -0.0000001156     0.8708880668    -1.1993326866
    9      H      -1.3842183082    -0.8818702043     0.8983430233
   10      H      -2.1573493743    -0.0000008846    -0.4174690103
   11      H      -1.3842199907     0.8818711961     0.8983416952
 ----------------------------------------------------------------

    7    -119.1024015479      4.38E-06 Convergence criterion met
    6    -119.1452748597      4.01E-06 Convergence criterion met
 Total energy in the final basis set = -119.14527486

                    Orbital Energies (a.u.)
 --------------------------------------------------------------

 Alpha MOs
 -- Occupied --
-10.2745 -10.2659 -10.2659  -0.8785  -0.7800  -0.6763  -0.5438  -0.5209
 -0.4858  -0.4663  -0.4212  -0.4136  -0.4058

                    Cartesian Multipole Moments
 -----------------------------------------------------------------
    Charge (ESU x 10^10)
                 0.0000
    Dipole Moment (Debye)
         X       0.0000      Y      -0.0000      Z      -0.0981
       Tot       0.0981
    Quadrupole Moments (Debye-Ang)
        XX     -22.1114     XY      -0.0000     YY     -21.3771
        XZ       0.0000     YZ      -0.0000     ZZ     -21.8252

 Total job time:  27.32s(wall), 73.71s(cpu)
        *  Thank you very much for using Q-Chem.  Have a nice day.  *
