 Q-Chem 5.3 (devel), Q-Chem, Inc., Pleasanton, CA (2020)
 Q-Chem 5.3.0 for Intel X86 EM64T Linux

User input:
--------------------------------------------------------------
$rem
   JOBTYPE  sp
   EXCHANGE   omegaB97X-D
   BASIS   6-311+G(2df,2pd)
   UNRESTRICTED   False
   max_scf_cycles   250
   geom_opt_max_cycles   1500
   basis2 6-31G*
   scf_algorithm rca_diis
   SYM_IGNORE  TRUE
   print_input   true
   geom_opt_dmax   80
   pop_mulliken false
   XC_GRID 000075000302
$end

$molecule
0 1
C       1.2551697579     0.0000020231     0.2582930039
C       -0.0000012748     0.0000005982     -0.6236600832
H       1.3241280215     -0.9509294031     0.7854851566
H       1.3241200217     0.9509325834     0.7854870649
H       2.2043717124     -0.0000071193     -0.2889506491
C       -1.2551725277     -0.0000014388     0.2582903086
H       0.0000011153     -0.9946972481     -1.0579664045
H       0.0000009571     0.9946981874     -1.0579670797
H       -1.3241208269     -0.9509250023     0.7854978101
H       -2.2043696181     0.0000050168     -0.2889608981
H       -1.3241273989     0.9509224687     0.7854967894
$end
--------------------------------------------------------------

             Standard Nuclear Orientation (Angstroms)
    I     Atom           X                Y                Z
 ----------------------------------------------------------------
    1      C       1.2551697579     0.0000020231     0.2582930039
    2      C      -0.0000012748     0.0000005982    -0.6236600832
    3      H       1.3241280215    -0.9509294031     0.7854851566
    4      H       1.3241200217     0.9509325834     0.7854870649
    5      H       2.2043717124    -0.0000071193    -0.2889506491
    6      C      -1.2551725277    -0.0000014388     0.2582903086
    7      H       0.0000011153    -0.9946972481    -1.0579664045
    8      H       0.0000009571     0.9946981874    -1.0579670797
    9      H      -1.3241208269    -0.9509250023     0.7854978101
   10      H      -2.2043696181     0.0000050168    -0.2889608981
   11      H      -1.3241273989     0.9509224687     0.7854967894
 ----------------------------------------------------------------

    7    -119.0717394060      7.54E-06 Convergence criterion met
    5    -119.1160550893      9.21E-06 Convergence criterion met
 Total energy in the final basis set = -119.11605509

                    Orbital Energies (a.u.)
 --------------------------------------------------------------

 Alpha MOs
 -- Occupied --
-10.2765 -10.2642 -10.2642  -0.8854  -0.7778  -0.6707  -0.5808  -0.5083
 -0.4874  -0.4554  -0.4345  -0.4165  -0.3787

                    Cartesian Multipole Moments
 -----------------------------------------------------------------
    Charge (ESU x 10^10)
                -0.0000
    Dipole Moment (Debye)
         X       0.0000      Y      -0.0000      Z      -0.0943
       Tot       0.0943
    Quadrupole Moments (Debye-Ang)
        XX     -22.0523     XY      -0.0000     YY     -20.0864
        XZ      -0.0000     YZ       0.0000     ZZ     -23.6502

 Total job time:  25.12s(wall), 67.79s(cpu)
        *  Thank you very much for using Q-Chem.  Have a nice day.  *
