 Q-Chem 5.3 (devel), Q-Chem, Inc., Pleasanton, CA (2020)
 Q-Chem 5.3.0 for Intel X86 EM64T Linux

User input:
--------------------------------------------------------------
$rem
   JOBTYPE  sp
   EXCHANGE   omegaB97X-D
   BASIS   6-311+G(2df,2pd)
   UNRESTRICTED   False
   max_scf_cycles   250
   geom_opt_max_cycles   1500
   basis2 6-31G*
   scf_algorithm rca_diis
   SYM_IGNORE  TRUE
   print_input   true
   geom_opt_dmax   80
   pop_mulliken false
   XC_GRID 000075000302
$end

$molecule
0 1
C       1.2593437607     -0.0790482042     0.2562900525
C       0.0000000270     0.0848546208     -0.5862711979
H       1.3894148036     -0.9136343704     0.9420752538
H       1.2039583464     0.8429382449     0.8457814568
H       2.1509447644     0.0906139159     -0.3481806140
C       -1.2593437807     -0.0790483090     0.2562900712
H       -0.0000001788     -0.8571846414     -1.1424718260
H       0.0000001325     0.8905907970     -1.3221443689
H       -1.3894145071     -0.9136344707     0.9420752433
H       -2.1509446385     0.0906148873     -0.3481805155
H       -1.2039587902     0.8429381957     0.8457814636
$end
--------------------------------------------------------------

             Standard Nuclear Orientation (Angstroms)
    I     Atom           X                Y                Z
 ----------------------------------------------------------------
    1      C       1.2593437607    -0.0790482042     0.2562900525
    2      C       0.0000000270     0.0848546208    -0.5862711979
    3      H       1.3894148036    -0.9136343704     0.9420752538
    4      H       1.2039583464     0.8429382449     0.8457814568
    5      H       2.1509447644     0.0906139159    -0.3481806140
    6      C      -1.2593437807    -0.0790483090     0.2562900712
    7      H      -0.0000001788    -0.8571846414    -1.1424718260
    8      H       0.0000001325     0.8905907970    -1.3221443689
    9      H      -1.3894145071    -0.9136344707     0.9420752433
   10      H      -2.1509446385     0.0906148873    -0.3481805155
   11      H      -1.2039587902     0.8429381957     0.8457814636
 ----------------------------------------------------------------

    7    -119.0771961510      5.70E-06 Convergence criterion met
    5    -119.1210448509      1.00E-05 Convergence criterion met
 Total energy in the final basis set = -119.12104485

                    Orbital Energies (a.u.)
 --------------------------------------------------------------

 Alpha MOs
 -- Occupied --
-10.2761 -10.2653 -10.2653  -0.8854  -0.7784  -0.6779  -0.5498  -0.5248
 -0.4952  -0.4503  -0.4441  -0.4148  -0.3739

                    Cartesian Multipole Moments
 -----------------------------------------------------------------
    Charge (ESU x 10^10)
                -0.0000
    Dipole Moment (Debye)
         X      -0.0000      Y       0.0353      Z      -0.0974
       Tot       0.1036
    Quadrupole Moments (Debye-Ang)
        XX     -22.2815     XY      -0.0000     YY     -21.2844
        XZ      -0.0000     YZ      -1.0805     ZZ     -21.9826

 Total job time:  24.83s(wall), 67.23s(cpu)
        *  Thank you very much for using Q-Chem.  Have a nice day.  *
