 Q-Chem 5.3 (devel), Q-Chem, Inc., Pleasanton, CA (2020)
 Q-Chem 5.3.0 for Intel X86 EM64T Linux

User input:
--------------------------------------------------------------
$rem
   JOBTYPE  sp
   EXCHANGE   omegaB97X-D
   BASIS   6-311+G(2df,2pd)
   max_scf_cycles   250
   geom_opt_max_cycles   1500
   basis2 6-31G*
   scf_algorithm rca_diis
   SYM_IGNORE  TRUE
   print_input   true
   geom_opt_dmax   80
   pop_mulliken false
   XC_GRID 000075000302
$end

$molecule
0 1
C       1.2478320666     -0.0000001595     0.3356807141
C       0.0000000475     0.0000002167     -0.6312901046
H       1.4263007060     -0.8968379052     0.9285693669
H       1.4263004242     0.8968377442     0.9285692388
H       2.0366244853     0.0000001678     -0.4239555363
C       -1.2478321798     -0.0000001494     0.3356809049
H       -0.0000002203     -0.8786096833     -1.2826961425
H       0.0000000474     0.8786098239     -1.2826965385
H       -1.4263006685     -0.8968379265     0.9285695146
H       -2.0366241694     0.0000007173     -0.4239556993
H       -1.4263005996     0.8968378201     0.9285693009
$end
--------------------------------------------------------------

             Standard Nuclear Orientation (Angstroms)
    I     Atom           X                Y                Z
 ----------------------------------------------------------------
    1      C       1.2478320666    -0.0000001595     0.3356807141
    2      C       0.0000000475     0.0000002167    -0.6312901046
    3      H       1.4263007060    -0.8968379052     0.9285693669
    4      H       1.4263004242     0.8968377442     0.9285692388
    5      H       2.0366244853     0.0000001678    -0.4239555363
    6      C      -1.2478321798    -0.0000001494     0.3356809049
    7      H      -0.0000002203    -0.8786096833    -1.2826961425
    8      H       0.0000000474     0.8786098239    -1.2826965385
    9      H      -1.4263006685    -0.8968379265     0.9285695146
   10      H      -2.0366241694     0.0000007173    -0.4239556993
   11      H      -1.4263005996     0.8968378201     0.9285693009
 ----------------------------------------------------------------

    7    -119.0806010751      5.53E-06 Convergence criterion met
    5    -119.1236455607      8.33E-06 Convergence criterion met
 Total energy in the final basis set = -119.12364556

                    Orbital Energies (a.u.)
 --------------------------------------------------------------

 Alpha MOs
 -- Occupied --
-10.2869 -10.2652 -10.2652  -0.8693  -0.7722  -0.6829  -0.5392  -0.5031
 -0.4880  -0.4687  -0.4374  -0.4225  -0.3698

                    Cartesian Multipole Moments
 -----------------------------------------------------------------
    Charge (ESU x 10^10)
                 0.0000
    Dipole Moment (Debye)
         X       0.0000      Y       0.0000      Z      -0.2180
       Tot       0.2180
    Quadrupole Moments (Debye-Ang)
        XX     -23.1028     XY      -0.0000     YY     -21.1136
        XZ       0.0000     YZ      -0.0000     ZZ     -21.2691

 Total job time:  23.61s(wall), 64.56s(cpu)
        *  Thank you very much for using Q-Chem.  Have a nice day.  *
