 Q-Chem 5.3 (devel), Q-Chem, Inc., Pleasanton, CA (2020)
 Q-Chem 5.3.0 for Intel X86 EM64T Linux

User input:
--------------------------------------------------------------
$rem
   JOBTYPE  sp
   EXCHANGE   omegaB97X-D
   BASIS   6-311+G(2df,2pd)
   UNRESTRICTED   False
   max_scf_cycles   250
   geom_opt_max_cycles   1500
   basis2 6-31G*
   scf_algorithm rca_diis
   SYM_IGNORE  TRUE
   print_input   true
   geom_opt_dmax   80
   pop_mulliken false
   XC_GRID 000075000302
$end

$molecule
0 1
C       1.3199992444     0.0000000024     0.3292520391
C       0.1481288577     -0.0000000045     -0.5738214865
H       1.3152541669     -0.9249458280     0.9014014451
H       1.3152541781     0.9249458297     0.9014014509
H       2.1524140063     -0.0000000047     -0.3725831717
C       -1.2246165018     -0.0000000156     0.1852330553
H       -0.1115840544     -0.8414936041     -1.2205010371
H       -0.1115840740     0.8414936399     -1.2205009588
H       -1.3207344077     -0.8311560989     0.8933471643
H       -2.1617971097     0.0000006292     -0.3755305741
H       -1.3207343663     0.8311561207     0.8933470924
$end
--------------------------------------------------------------

             Standard Nuclear Orientation (Angstroms)
    I     Atom           X                Y                Z
 ----------------------------------------------------------------
    1      C       1.3199992444     0.0000000024     0.3292520391
    2      C       0.1481288577    -0.0000000045    -0.5738214865
    3      H       1.3152541669    -0.9249458280     0.9014014451
    4      H       1.3152541781     0.9249458297     0.9014014509
    5      H       2.1524140063    -0.0000000047    -0.3725831717
    6      C      -1.2246165018    -0.0000000156     0.1852330553
    7      H      -0.1115840544    -0.8414936041    -1.2205010371
    8      H      -0.1115840740     0.8414936399    -1.2205009588
    9      H      -1.3207344077    -0.8311560989     0.8933471643
   10      H      -2.1617971097     0.0000006292    -0.3755305741
   11      H      -1.3207343663     0.8311561207     0.8933470924
 ----------------------------------------------------------------

    7    -119.0747414932      5.75E-06 Convergence criterion met
    5    -119.1187955400      9.60E-06 Convergence criterion met
 Total energy in the final basis set = -119.11879554

                    Orbital Energies (a.u.)
 --------------------------------------------------------------

 Alpha MOs
 -- Occupied --
-10.2751 -10.2713 -10.2618  -0.8863  -0.7820  -0.6806  -0.5479  -0.5247
 -0.4924  -0.4654  -0.4324  -0.3964  -0.3930

                    Cartesian Multipole Moments
 -----------------------------------------------------------------
    Charge (ESU x 10^10)
                 0.0000
    Dipole Moment (Debye)
         X       0.0519      Y       0.0000      Z      -0.0552
       Tot       0.0758
    Quadrupole Moments (Debye-Ang)
        XX     -22.1155     XY      -0.0000     YY     -21.5307
        XZ       0.3656     YZ      -0.0000     ZZ     -21.9655

 Total job time:  25.42s(wall), 68.02s(cpu)
        *  Thank you very much for using Q-Chem.  Have a nice day.  *
