 Q-Chem 5.3 (devel), Q-Chem, Inc., Pleasanton, CA (2020)
 Q-Chem 5.3.0 for Intel X86 EM64T Linux

User input:
--------------------------------------------------------------
$rem
   JOBTYPE  sp
   EXCHANGE   omegaB97X-D
   BASIS   6-311+G(2df,2pd)
   UNRESTRICTED   False
   max_scf_cycles   250
   geom_opt_max_cycles   1500
   basis2 6-31G*
   scf_algorithm rca_diis
   SYM_IGNORE  TRUE
   print_input   true
   geom_opt_dmax   80
   pop_mulliken false
   XC_GRID 000075000302
$end

$molecule
0 1
C       1.2568497790     -0.1616277968     0.2618220973
C       0.0000001980     0.0000034668     -0.5848918417
H       1.6540016360     -1.1729421817     0.1639720712
H       1.0488630933     0.0091855627     1.3209990638
H       2.0392507370     0.5340148062     -0.0432228742
C       -1.2568496093     0.1616250040     0.2618236829
H       -0.0808729515     -0.8701979415     -1.2406093274
H       0.0808732503     0.8702127094     -1.2405992005
H       -1.0488587577     -0.0091738330     1.3210019083
H       -2.0392410454     -0.5340313903     -0.0432143092
H       -1.6540163903     1.1729322602     0.1639637483
$end
--------------------------------------------------------------

             Standard Nuclear Orientation (Angstroms)
    I     Atom           X                Y                Z
 ----------------------------------------------------------------
    1      C       1.2568497790    -0.1616277968     0.2618220973
    2      C       0.0000001980     0.0000034668    -0.5848918417
    3      H       1.6540016360    -1.1729421817     0.1639720712
    4      H       1.0488630933     0.0091855627     1.3209990638
    5      H       2.0392507370     0.5340148062    -0.0432228742
    6      C      -1.2568496093     0.1616250040     0.2618236829
    7      H      -0.0808729515    -0.8701979415    -1.2406093274
    8      H       0.0808732503     0.8702127094    -1.2405992005
    9      H      -1.0488587577    -0.0091738330     1.3210019083
   10      H      -2.0392410454    -0.5340313903    -0.0432143092
   11      H      -1.6540163903     1.1729322602     0.1639637483
 ----------------------------------------------------------------

    7    -119.0916141614      4.19E-06 Convergence criterion met
    6    -119.1349914910      3.96E-06 Convergence criterion met
 Total energy in the final basis set = -119.13499149

                    Orbital Energies (a.u.)
 --------------------------------------------------------------

 Alpha MOs
 -- Occupied --
-10.2715 -10.2633 -10.2633  -0.8810  -0.7763  -0.6776  -0.5444  -0.5276
 -0.4757  -0.4705  -0.4220  -0.4122  -0.3980

                    Cartesian Multipole Moments
 -----------------------------------------------------------------
    Charge (ESU x 10^10)
                 0.0000
    Dipole Moment (Debye)
         X      -0.0000      Y       0.0000      Z      -0.0946
       Tot       0.0946
    Quadrupole Moments (Debye-Ang)
        XX     -22.4018     XY       0.1103     YY     -21.2156
        XZ       0.0000     YZ       0.0000     ZZ     -21.8270

 Total job time:  26.94s(wall), 73.43s(cpu)
        *  Thank you very much for using Q-Chem.  Have a nice day.  *
