 Q-Chem 5.3 (devel), Q-Chem, Inc., Pleasanton, CA (2020)
 Q-Chem 5.3.0 for Intel X86 EM64T Linux

User input:
--------------------------------------------------------------
$rem
   JOBTYPE  sp
   EXCHANGE   omegaB97X-D
   BASIS   6-311+G(2df,2pd)
   UNRESTRICTED   False
   max_scf_cycles   250
   geom_opt_max_cycles   1500
   basis2 6-31G*
   scf_algorithm rca_diis
   SYM_IGNORE  TRUE
   print_input   true
   geom_opt_dmax   80
   pop_mulliken false
   XC_GRID 000075000302
$end

$molecule
0 1
C       1.2908632452     0.0000019911     0.2408467633
C       0.0240948085     0.0000010557     -0.5856341933
H       1.3140052916     -0.7934266919     0.9939456181
H       1.3139991099     0.7934288974     0.9939472812
H       2.1373241425     -0.0000063603     -0.4401033123
C       -1.2434483476     -0.0000007293     0.2811233313
H       -0.0190025898     -0.8734514093     -1.2405995716
H       -0.0190028023     0.8734528387     -1.2406005483
H       -1.3057047131     -0.9530219711     0.8055404100
H       -2.1874191060     0.0000024341     -0.2729608136
H       -1.3057090996     0.9530206108     0.8055400540
$end
--------------------------------------------------------------

             Standard Nuclear Orientation (Angstroms)
    I     Atom           X                Y                Z
 ----------------------------------------------------------------
    1      C       1.2908632452     0.0000019911     0.2408467633
    2      C       0.0240948085     0.0000010557    -0.5856341933
    3      H       1.3140052916    -0.7934266919     0.9939456181
    4      H       1.3139991099     0.7934288974     0.9939472812
    5      H       2.1373241425    -0.0000063603    -0.4401033123
    6      C      -1.2434483476    -0.0000007293     0.2811233313
    7      H      -0.0190025898    -0.8734514093    -1.2405995716
    8      H      -0.0190028023     0.8734528387    -1.2406005483
    9      H      -1.3057047131    -0.9530219711     0.8055404100
   10      H      -2.1874191060     0.0000024341    -0.2729608136
   11      H      -1.3057090996     0.9530206108     0.8055400540
 ----------------------------------------------------------------

    7    -119.0886614032      5.44E-06 Convergence criterion met
    6    -119.1323533118      3.95E-06 Convergence criterion met
 Total energy in the final basis set = -119.13235331

                    Orbital Energies (a.u.)
 --------------------------------------------------------------

 Alpha MOs
 -- Occupied --
-10.2742 -10.2655 -10.2654  -0.8819  -0.7788  -0.6794  -0.5487  -0.5294
 -0.4864  -0.4630  -0.4192  -0.4079  -0.4010

                    Cartesian Multipole Moments
 -----------------------------------------------------------------
    Charge (ESU x 10^10)
                 0.0000
    Dipole Moment (Debye)
         X      -0.0768      Y      -0.0000      Z      -0.0832
       Tot       0.1132
    Quadrupole Moments (Debye-Ang)
        XX     -22.1571     XY      -0.0000     YY     -21.4440
        XZ       0.0734     YZ       0.0000     ZZ     -21.8368

 Total job time:  27.04s(wall), 73.59s(cpu)
        *  Thank you very much for using Q-Chem.  Have a nice day.  *
