 Q-Chem 5.3 (devel), Q-Chem, Inc., Pleasanton, CA (2020)
 Q-Chem 5.3.0 for Intel X86 EM64T Linux

User input:
--------------------------------------------------------------
$rem
   JOBTYPE  sp
   EXCHANGE   omegaB97X-D
   BASIS   6-311+G(2df,2pd)
   max_scf_cycles   250
   geom_opt_max_cycles   1500
   basis2 6-31G*
   scf_algorithm rca_diis
   SYM_IGNORE  TRUE
   print_input   true
   geom_opt_dmax   80
   pop_mulliken false
   XC_GRID 000075000302
$end

$molecule
0 1
C       1.2665390377     -0.0786123517     0.2388832534
C       -0.0000002067     0.2726279115     -0.5326272254
H       0.9827131028     -0.6195706522     1.1452234774
H       1.8415355833     0.7964096717     0.5445351357
H       1.9236523251     -0.7268061112     -0.3417795308
C       -1.2665384876     -0.0786164800     0.2388832181
H       0.0000007276     -0.3315487662     -1.4426778687
H       -0.0000020678     1.3160995710     -0.8573711211
H       -0.9827149615     -0.6195933094     1.1452128879
H       -1.9236591135     -0.7267941834     -0.3417893639
H       -1.8415260000     0.7964053660     0.5445521563
$end
--------------------------------------------------------------

             Standard Nuclear Orientation (Angstroms)
    I     Atom           X                Y                Z
 ----------------------------------------------------------------
    1      C       1.2665390377    -0.0786123517     0.2388832534
    2      C      -0.0000002067     0.2726279115    -0.5326272254
    3      H       0.9827131028    -0.6195706522     1.1452234774
    4      H       1.8415355833     0.7964096717     0.5445351357
    5      H       1.9236523251    -0.7268061112    -0.3417795308
    6      C      -1.2665384876    -0.0786164800     0.2388832181
    7      H       0.0000007276    -0.3315487662    -1.4426778687
    8      H      -0.0000020678     1.3160995710    -0.8573711211
    9      H      -0.9827149615    -0.6195933094     1.1452128879
   10      H      -1.9236591135    -0.7267941834    -0.3417893639
   11      H      -1.8415260000     0.7964053660     0.5445521563
 ----------------------------------------------------------------

    7    -119.0904281866      4.14E-06 Convergence criterion met
    6    -119.1339532952      4.05E-06 Convergence criterion met
 Total energy in the final basis set = -119.13395330

                    Orbital Energies (a.u.)
 --------------------------------------------------------------

 Alpha MOs
 -- Occupied --
-10.2716 -10.2634 -10.2634  -0.8819  -0.7756  -0.6785  -0.5442  -0.5314
 -0.4739  -0.4674  -0.4203  -0.4158  -0.3985

                    Cartesian Multipole Moments
 -----------------------------------------------------------------
    Charge (ESU x 10^10)
                -0.0000
    Dipole Moment (Debye)
         X      -0.0000      Y       0.0131      Z      -0.0901
       Tot       0.0910
    Quadrupole Moments (Debye-Ang)
        XX     -22.3169     XY      -0.0000     YY     -21.2922
        XZ      -0.0000     YZ       0.2574     ZZ     -21.8465

 Total job time:  26.71s(wall), 72.72s(cpu)
        *  Thank you very much for using Q-Chem.  Have a nice day.  *
