 Q-Chem 5.3 (devel), Q-Chem, Inc., Pleasanton, CA (2020)
 Q-Chem 5.3.0 for Intel X86 EM64T Linux

User input:
--------------------------------------------------------------
$rem
   JOBTYPE  sp
   EXCHANGE   omegaB97X-D
   BASIS   6-311+G(2df,2pd)
   UNRESTRICTED   False
   max_scf_cycles   250
   geom_opt_max_cycles   1500
   basis2 6-31G*
   scf_algorithm rca_diis
   SYM_IGNORE  TRUE
   print_input   true
   geom_opt_dmax   80
   pop_mulliken false
   XC_GRID 000075000302
$end

$molecule
0 1
C       1.3204868970     0.0000000259     0.2986681777
C       -0.0809643676     -0.0000000163     -0.5851398088
H       1.3579282581     -0.8742470100     0.9545414611
H       1.3579282288     0.8742470652     0.9545414589
H       2.2326547363     0.0000000246     -0.2988957859
C       -1.2178374651     -0.0000001248     0.2167686335
H       -0.1781905491     -0.8717534622     -1.2365611074
H       -0.1781904951     0.8717534440     -1.2365610775
H       -1.2574218201     -0.8867604200     0.8496715613
H       -2.0989716698     0.0000008276     -0.4256599679
H       -1.2574218140     0.8867603120     0.8496714739
$end
--------------------------------------------------------------

             Standard Nuclear Orientation (Angstroms)
    I     Atom           X                Y                Z
 ----------------------------------------------------------------
    1      C       1.3204868970     0.0000000259     0.2986681777
    2      C      -0.0809643676    -0.0000000163    -0.5851398088
    3      H       1.3579282581    -0.8742470100     0.9545414611
    4      H       1.3579282288     0.8742470652     0.9545414589
    5      H       2.2326547363     0.0000000246    -0.2988957859
    6      C      -1.2178374651    -0.0000001248     0.2167686335
    7      H      -0.1781905491    -0.8717534622    -1.2365611074
    8      H      -0.1781904951     0.8717534440    -1.2365610775
    9      H      -1.2574218201    -0.8867604200     0.8496715613
   10      H      -2.0989716698     0.0000008276    -0.4256599679
   11      H      -1.2574218140     0.8867603120     0.8496714739
 ----------------------------------------------------------------

    7    -119.0794596810      5.22E-06 Convergence criterion met
    6    -119.1233745546      4.64E-06 Convergence criterion met
 Total energy in the final basis set = -119.12337455

                    Orbital Energies (a.u.)
 --------------------------------------------------------------

 Alpha MOs
 -- Occupied --
-10.2744 -10.2731 -10.2548  -0.8940  -0.7759  -0.6738  -0.5525  -0.5297
 -0.4815  -0.4640  -0.4371  -0.4024  -0.3971

                    Cartesian Multipole Moments
 -----------------------------------------------------------------
    Charge (ESU x 10^10)
                -0.0000
    Dipole Moment (Debye)
         X      -0.0845      Y       0.0000      Z      -0.0812
       Tot       0.1172
    Quadrupole Moments (Debye-Ang)
        XX     -22.0838     XY      -0.0000     YY     -21.3618
        XZ       0.6230     YZ      -0.0000     ZZ     -21.8741

 Total job time:  28.18s(wall), 75.88s(cpu)
        *  Thank you very much for using Q-Chem.  Have a nice day.  *
