 Q-Chem 5.3 (devel), Q-Chem, Inc., Pleasanton, CA (2020)
 Q-Chem 5.3.0 for Intel X86 EM64T Linux

User input:
--------------------------------------------------------------
$rem
   JOBTYPE  sp
   EXCHANGE   omegaB97X-D
   BASIS   6-311+G(2df,2pd)
   UNRESTRICTED   False
   max_scf_cycles   250
   geom_opt_max_cycles   1500
   basis2 6-31G*
   scf_algorithm rca_diis
   SYM_IGNORE  TRUE
   print_input   true
   geom_opt_dmax   80
   pop_mulliken false
   XC_GRID 000075000302
$end

$molecule
0 1
C       1.2590071265     -0.1427382075     0.2743553880
C       0.0000001204     -0.0000002361     -0.5725500145
H       1.5158686842     -0.8270180922     1.0792308606
H       1.0941132526     0.8635734603     0.6774675402
H       2.1306364456     0.0403531716     -0.3548204512
C       -1.2590066791     0.1427379183     0.2743558959
H       -0.3675156292     -0.8001414797     -1.2194370896
H       0.3675149623     0.8001426545     -1.2194355312
H       -1.0941136053     -0.8635734604     0.6774691697
H       -2.1306352136     -0.0403536279     -0.3548210803
H       -1.5158695250     0.8270185651     1.0792303314
$end
--------------------------------------------------------------

             Standard Nuclear Orientation (Angstroms)
    I     Atom           X                Y                Z
 ----------------------------------------------------------------
    1      C       1.2590071265    -0.1427382075     0.2743553880
    2      C       0.0000001204    -0.0000002361    -0.5725500145
    3      H       1.5158686842    -0.8270180922     1.0792308606
    4      H       1.0941132526     0.8635734603     0.6774675402
    5      H       2.1306364456     0.0403531716    -0.3548204512
    6      C      -1.2590066791     0.1427379183     0.2743558959
    7      H      -0.3675156292    -0.8001414797    -1.2194370896
    8      H       0.3675149623     0.8001426545    -1.2194355312
    9      H      -1.0941136053    -0.8635734604     0.6774691697
   10      H      -2.1306352136    -0.0403536279    -0.3548210803
   11      H      -1.5158695250     0.8270185651     1.0792303314
 ----------------------------------------------------------------

    7    -119.0496020745      5.59E-06 Convergence criterion met
    6    -119.0944507606      4.42E-06 Convergence criterion met
 Total energy in the final basis set = -119.09445076

                    Orbital Energies (a.u.)
 --------------------------------------------------------------

 Alpha MOs
 -- Occupied --
-10.2844 -10.2670 -10.2669  -0.8948  -0.7864  -0.6764  -0.5629  -0.5314
 -0.4751  -0.4714  -0.4189  -0.3977  -0.3971

                    Cartesian Multipole Moments
 -----------------------------------------------------------------
    Charge (ESU x 10^10)
                -0.0000
    Dipole Moment (Debye)
         X      -0.0000      Y       0.0000      Z      -0.0234
       Tot       0.0234
    Quadrupole Moments (Debye-Ang)
        XX     -21.9117     XY       0.2130     YY     -21.8409
        XZ       0.0000     YZ      -0.0000     ZZ     -21.9242

 Total job time:  27.65s(wall), 74.74s(cpu)
        *  Thank you very much for using Q-Chem.  Have a nice day.  *
