 Q-Chem 5.3 (devel), Q-Chem, Inc., Pleasanton, CA (2020)
 Q-Chem 5.3.0 for Intel X86 EM64T Linux

User input:
--------------------------------------------------------------
$rem
   JOBTYPE  sp
   EXCHANGE   omegaB97X-D
   BASIS   6-311+G(2df,2pd)
   UNRESTRICTED   False
   max_scf_cycles   250
   geom_opt_max_cycles   1500
   basis2 6-31G*
   scf_algorithm rca_diis
   SYM_IGNORE  TRUE
   print_input   true
   geom_opt_dmax   80
   pop_mulliken false
   XC_GRID 000075000302
$end

$molecule
0 1
C       1.2660219609     -0.1045543622     0.2228605763
C       -0.0000003816     0.3541030595     -0.4909603294
H       0.9745217645     -0.4916329741     1.2030108379
H       1.9964590838     0.6883598930     0.3859777702
H       1.7607857324     -0.9124036186     -0.3172418670
C       -1.2660212463     -0.1045594472     0.2228603173
H       0.0000006186     -0.1418130964     -1.4641251301
H       -0.0000027040     1.4281976710     -0.6930781611
H       -0.9745201113     -0.4916640665     1.2029997334
H       -1.7607959568     -0.9123911735     -0.3172585882
H       -1.9964488209     0.6883587809     0.3859998596
$end
--------------------------------------------------------------

             Standard Nuclear Orientation (Angstroms)
    I     Atom           X                Y                Z
 ----------------------------------------------------------------
    1      C       1.2660219609    -0.1045543622     0.2228605763
    2      C      -0.0000003816     0.3541030595    -0.4909603294
    3      H       0.9745217645    -0.4916329741     1.2030108379
    4      H       1.9964590838     0.6883598930     0.3859777702
    5      H       1.7607857324    -0.9124036186    -0.3172418670
    6      C      -1.2660212463    -0.1045594472     0.2228603173
    7      H       0.0000006186    -0.1418130964    -1.4641251301
    8      H      -0.0000027040     1.4281976710    -0.6930781611
    9      H      -0.9745201113    -0.4916640665     1.2029997334
   10      H      -1.7607959568    -0.9123911735    -0.3172585882
   11      H      -1.9964488209     0.6883587809     0.3859998596
 ----------------------------------------------------------------

    7    -119.0894206411      4.13E-06 Convergence criterion met
    6    -119.1329955033      4.10E-06 Convergence criterion met
 Total energy in the final basis set = -119.13299550

                    Orbital Energies (a.u.)
 --------------------------------------------------------------

 Alpha MOs
 -- Occupied --
-10.2716 -10.2637 -10.2637  -0.8823  -0.7756  -0.6787  -0.5446  -0.5329
 -0.4716  -0.4681  -0.4185  -0.4179  -0.3985

                    Cartesian Multipole Moments
 -----------------------------------------------------------------
    Charge (ESU x 10^10)
                 0.0000
    Dipole Moment (Debye)
         X      -0.0000      Y       0.0167      Z      -0.0932
       Tot       0.0947
    Quadrupole Moments (Debye-Ang)
        XX     -22.2308     XY      -0.0000     YY     -21.3446
        XZ      -0.0000     YZ       0.3432     ZZ     -21.8742

 Total job time:  27.05s(wall), 74.01s(cpu)
        *  Thank you very much for using Q-Chem.  Have a nice day.  *
