 Q-Chem 5.3 (devel), Q-Chem, Inc., Pleasanton, CA (2020)
 Q-Chem 5.3.0 for Intel X86 EM64T Linux

User input:
--------------------------------------------------------------
$rem
   JOBTYPE  sp
   EXCHANGE   omegaB97X-D
   BASIS   6-311+G(2df,2pd)
   UNRESTRICTED   False
   max_scf_cycles   250
   geom_opt_max_cycles   1500
   basis2 6-31G*
   scf_algorithm rca_diis
   SYM_IGNORE  TRUE
   print_input   true
   geom_opt_dmax   80
   pop_mulliken false
   XC_GRID 000075000302
$end

$molecule
0 1
C       1.2669073955     -0.0524535360     0.2503252024
C       -0.0000000757     0.1853162741     -0.5627744804
H       1.0448066297     -0.7339788765     1.0749644717
H       1.6644452396     0.8673995624     0.6820083512
H       2.0527782967     -0.5067945938     -0.3539127079
C       -1.2669070732     -0.0524562858     0.2503253065
H       0.0000006353     -0.5184167392     -1.3983158868
H       -0.0000013309     1.1847681354     -1.0046338670
H       -1.0448097968     -0.7339921503     1.0749566328
H       -2.0527814166     -0.5067856186     -0.3539170608
H       -1.6644385641     0.8673944943     0.6820190573
$end
--------------------------------------------------------------

             Standard Nuclear Orientation (Angstroms)
    I     Atom           X                Y                Z
 ----------------------------------------------------------------
    1      C       1.2669073955    -0.0524535360     0.2503252024
    2      C      -0.0000000757     0.1853162741    -0.5627744804
    3      H       1.0448066297    -0.7339788765     1.0749644717
    4      H       1.6644452396     0.8673995624     0.6820083512
    5      H       2.0527782967    -0.5067945938    -0.3539127079
    6      C      -1.2669070732    -0.0524562858     0.2503253065
    7      H       0.0000006353    -0.5184167392    -1.3983158868
    8      H      -0.0000013309     1.1847681354    -1.0046338670
    9      H      -1.0448097968    -0.7339921503     1.0749566328
   10      H      -2.0527814166    -0.5067856186    -0.3539170608
   11      H      -1.6644385641     0.8673944943     0.6820190573
 ----------------------------------------------------------------

    7    -119.0952503612      4.26E-06 Convergence criterion met
    6    -119.1385343609      3.98E-06 Convergence criterion met
 Total energy in the final basis set = -119.13853436

                    Orbital Energies (a.u.)
 --------------------------------------------------------------

 Alpha MOs
 -- Occupied --
-10.2725 -10.2640 -10.2640  -0.8815  -0.7762  -0.6782  -0.5450  -0.5281
 -0.4782  -0.4652  -0.4204  -0.4163  -0.4013

                    Cartesian Multipole Moments
 -----------------------------------------------------------------
    Charge (ESU x 10^10)
                 0.0000
    Dipole Moment (Debye)
         X      -0.0000      Y       0.0100      Z      -0.0888
       Tot       0.0894
    Quadrupole Moments (Debye-Ang)
        XX     -22.2829     XY      -0.0000     YY     -21.2977
        XZ      -0.0000     YZ       0.1557     ZZ     -21.8427

 Total job time:  27.13s(wall), 73.33s(cpu)
        *  Thank you very much for using Q-Chem.  Have a nice day.  *
