 Q-Chem 5.3 (devel), Q-Chem, Inc., Pleasanton, CA (2020)
 Q-Chem 5.3.0 for Intel X86 EM64T Linux

User input:
--------------------------------------------------------------
$rem
   JOBTYPE  sp
   EXCHANGE   omegaB97X-D
   BASIS   6-311+G(2df,2pd)
   UNRESTRICTED   False
   max_scf_cycles   250
   geom_opt_max_cycles   1500
   basis2 6-31G*
   scf_algorithm rca_diis
   SYM_IGNORE  TRUE
   print_input   true
   geom_opt_dmax   80
   pop_mulliken false
   XC_GRID 000075000302
$end

$molecule
0 1
C       1.2100892718     -0.0000001288     0.1597146192
C       -0.0000006941     -0.0000001994     -0.6404266377
H       1.5095282706     -0.7502277262     0.9043317060
H       1.5095280832     0.7502276224     0.9043316041
H       2.2493802254     -0.0000001879     -0.1920519945
C       -1.2100913523     0.0000000683     0.1597154680
H       -0.0000001276     -0.8776454477     -1.2855899292
H       -0.0000010043     0.8776453033     -1.2855895312
H       -1.5095254542     -0.7502286037     0.9043332609
H       -2.2493802287     0.0000014521     -0.1920562648
H       -1.5095270506     0.7502285137     0.9043327182
$end
--------------------------------------------------------------

             Standard Nuclear Orientation (Angstroms)
    I     Atom           X                Y                Z
 ----------------------------------------------------------------
    1      C       1.2100892718    -0.0000001288     0.1597146192
    2      C      -0.0000006941    -0.0000001994    -0.6404266377
    3      H       1.5095282706    -0.7502277262     0.9043317060
    4      H       1.5095280832     0.7502276224     0.9043316041
    5      H       2.2493802254    -0.0000001879    -0.1920519945
    6      C      -1.2100913523     0.0000000683     0.1597154680
    7      H      -0.0000001276    -0.8776454477    -1.2855899292
    8      H      -0.0000010043     0.8776453033    -1.2855895312
    9      H      -1.5095254542    -0.7502286037     0.9043332609
   10      H      -2.2493802287     0.0000014521    -0.1920562648
   11      H      -1.5095270506     0.7502285137     0.9043327182
 ----------------------------------------------------------------

    7    -119.0241206827      5.43E-06 Convergence criterion met
    6    -119.0724981369      4.37E-06 Convergence criterion met
 Total energy in the final basis set = -119.07249814

                    Orbital Energies (a.u.)
 --------------------------------------------------------------

 Alpha MOs
 -- Occupied --
-10.2860 -10.2637 -10.2637  -0.9007  -0.7962  -0.7162  -0.5424  -0.5362
 -0.5234  -0.4263  -0.4134  -0.4110  -0.3855

                    Cartesian Multipole Moments
 -----------------------------------------------------------------
    Charge (ESU x 10^10)
                -0.0000
    Dipole Moment (Debye)
         X       0.0000      Y       0.0000      Z       0.0837
       Tot       0.0837
    Quadrupole Moments (Debye-Ang)
        XX     -20.3558     XY      -0.0000     YY     -22.5361
        XZ       0.0000     YZ      -0.0000     ZZ     -21.6173

 Total job time:  27.33s(wall), 74.18s(cpu)
        *  Thank you very much for using Q-Chem.  Have a nice day.  *
