 Q-Chem 5.3 (devel), Q-Chem, Inc., Pleasanton, CA (2020)
 Q-Chem 5.3.0 for Intel X86 EM64T Linux

User input:
--------------------------------------------------------------
$rem
   JOBTYPE  sp
   EXCHANGE   omegaB97X-D
   BASIS   6-311+G(2df,2pd)
   UNRESTRICTED   False
   max_scf_cycles   250
   geom_opt_max_cycles   1500
   basis2 6-31G*
   scf_algorithm rca_diis
   SYM_IGNORE  TRUE
   print_input   true
   geom_opt_dmax   80
   pop_mulliken false
   XC_GRID 000075000302
$end

$molecule
0 1
C       1.2600312137     0.1346231324     0.2611701958
C       0.0000002028     -0.0000026926     -0.5855405484
H       1.0808709329     -0.1783093685     1.2926320437
H       1.5942570333     1.1729293673     0.2862011019
H       2.0772142821     -0.4687392666     -0.1354254214
C       -1.2600312520     -0.1346204303     0.2611707670
H       0.0672975438     -0.8713413608     -1.2412820720
H       -0.0672966013     0.8713292422     -1.2412908591
H       -1.5942689954     -1.1729232423     0.2861926069
H       -2.0772083932     0.4687543409     -0.1354182084
H       -1.0808660274     0.1783009442     1.2926354129
$end
--------------------------------------------------------------

             Standard Nuclear Orientation (Angstroms)
    I     Atom           X                Y                Z
 ----------------------------------------------------------------
    1      C       1.2600312137     0.1346231324     0.2611701958
    2      C       0.0000002028    -0.0000026926    -0.5855405484
    3      H       1.0808709329    -0.1783093685     1.2926320437
    4      H       1.5942570333     1.1729293673     0.2862011019
    5      H       2.0772142821    -0.4687392666    -0.1354254214
    6      C      -1.2600312520    -0.1346204303     0.2611707670
    7      H       0.0672975438    -0.8713413608    -1.2412820720
    8      H      -0.0672966013     0.8713292422    -1.2412908591
    9      H      -1.5942689954    -1.1729232423     0.2861926069
   10      H      -2.0772083932     0.4687543409    -0.1354182084
   11      H      -1.0808660274     0.1783009442     1.2926354129
 ----------------------------------------------------------------

    7    -119.0937113435      4.27E-06 Convergence criterion met
    6    -119.1369741806      3.96E-06 Convergence criterion met
 Total energy in the final basis set = -119.13697418

                    Orbital Energies (a.u.)
 --------------------------------------------------------------

 Alpha MOs
 -- Occupied --
-10.2718 -10.2637 -10.2637  -0.8810  -0.7764  -0.6776  -0.5444  -0.5268
 -0.4771  -0.4700  -0.4209  -0.4137  -0.3991

                    Cartesian Multipole Moments
 -----------------------------------------------------------------
    Charge (ESU x 10^10)
                 0.0000
    Dipole Moment (Debye)
         X      -0.0000      Y      -0.0000      Z      -0.0896
       Tot       0.0896
    Quadrupole Moments (Debye-Ang)
        XX     -22.3484     XY      -0.0875     YY     -21.2363
        XZ       0.0000     YZ      -0.0000     ZZ     -21.8427

 Total job time:  27.13s(wall), 73.67s(cpu)
        *  Thank you very much for using Q-Chem.  Have a nice day.  *
