 Q-Chem 5.3 (devel), Q-Chem, Inc., Pleasanton, CA (2020)
 Q-Chem 5.3.0 for Intel X86 EM64T Linux

User input:
--------------------------------------------------------------
$rem
   JOBTYPE  sp
   EXCHANGE   omegaB97X-D
   BASIS   6-311+G(2df,2pd)
   max_scf_cycles   250
   geom_opt_max_cycles   1500
   basis2 6-31G*
   scf_algorithm rca_diis
   SYM_IGNORE  TRUE
   print_input   true
   geom_opt_dmax   80
   pop_mulliken false
   XC_GRID 000075000302
$end

$molecule
0 1
C       1.2670388374     0.0393283571     0.2543463933
C       -0.0000000773     -0.1398340306     -0.5734424981
H       1.5719951549     -0.8872437691     0.7436386097
H       1.0947719776     0.7829063957     1.0358999518
H       2.1008374601     0.3859593402     -0.3570039566
C       -1.2670388214     0.0393306790     0.2543460297
H       -0.0000007827     -1.1123819145     -1.0716140348
H       0.0000006332     0.6103053119     -1.3676592180
H       -1.5719897649     -0.8872390149     0.7436463828
H       -2.1008397509     0.3859531479     -0.3570059163
H       -1.0947749266     0.7829161633     1.0358932755
$end
--------------------------------------------------------------

             Standard Nuclear Orientation (Angstroms)
    I     Atom           X                Y                Z
 ----------------------------------------------------------------
    1      C       1.2670388374     0.0393283571     0.2543463933
    2      C      -0.0000000773    -0.1398340306    -0.5734424981
    3      H       1.5719951549    -0.8872437691     0.7436386097
    4      H       1.0947719776     0.7829063957     1.0358999518
    5      H       2.1008374601     0.3859593402    -0.3570039566
    6      C      -1.2670388214     0.0393306790     0.2543460297
    7      H      -0.0000007827    -1.1123819145    -1.0716140348
    8      H       0.0000006332     0.6103053119    -1.3676592180
    9      H      -1.5719897649    -0.8872390149     0.7436463828
   10      H      -2.1008397509     0.3859531479    -0.3570059163
   11      H      -1.0947749266     0.7829161633     1.0358932755
 ----------------------------------------------------------------

    7    -119.0981781657      4.35E-06 Convergence criterion met
    6    -119.1413185243      3.94E-06 Convergence criterion met
 Total energy in the final basis set = -119.14131852

                    Orbital Energies (a.u.)
 --------------------------------------------------------------

 Alpha MOs
 -- Occupied --
-10.2731 -10.2644 -10.2644  -0.8813  -0.7765  -0.6780  -0.5453  -0.5265
 -0.4801  -0.4644  -0.4198  -0.4171  -0.4033

                    Cartesian Multipole Moments
 -----------------------------------------------------------------
    Charge (ESU x 10^10)
                -0.0000
    Dipole Moment (Debye)
         X       0.0000      Y      -0.0082      Z      -0.0880
       Tot       0.0884
    Quadrupole Moments (Debye-Ang)
        XX     -22.2426     XY      -0.0000     YY     -21.3173
        XZ      -0.0000     YZ      -0.1089     ZZ     -21.8425

 Total job time:  27.74s(wall), 74.76s(cpu)
        *  Thank you very much for using Q-Chem.  Have a nice day.  *
