 Q-Chem 5.3 (devel), Q-Chem, Inc., Pleasanton, CA (2020)
 Q-Chem 5.3.0 for Intel X86 EM64T Linux

User input:
--------------------------------------------------------------
$rem
   JOBTYPE  sp
   EXCHANGE   omegaB97X-D
   BASIS   6-311+G(2df,2pd)
   UNRESTRICTED   False
   max_scf_cycles   250
   geom_opt_max_cycles   1500
   basis2 6-31G*
   scf_algorithm rca_diis
   SYM_IGNORE  TRUE
   print_input   true
   geom_opt_dmax   80
   pop_mulliken false
   XC_GRID 000075000302
$end

$molecule
0 1
C       1.2536467487     -0.0000009685     0.3165685047
C       -0.0000000325     -0.0000021325     -0.5137057131
H       1.3317095216     -0.9575895010     0.8294521448
H       1.3317112283     0.9575884342     0.8294505040
H       2.2090633733     0.0000042650     -0.2167507562
C       -1.2536467726     -0.0000013053     0.3165681710
H       0.0000002370     -0.7314308766     -1.3313463695
H       0.0000002025     0.7314281728     -1.3313449477
H       -1.3317089506     -0.9575890026     0.8294534025
H       -2.2090632504     0.0000061403     -0.2167513061
H       -1.3317123659     0.9575874402     0.8294513844
$end
--------------------------------------------------------------

             Standard Nuclear Orientation (Angstroms)
    I     Atom           X                Y                Z
 ----------------------------------------------------------------
    1      C       1.2536467487    -0.0000009685     0.3165685047
    2      C      -0.0000000325    -0.0000021325    -0.5137057131
    3      H       1.3317095216    -0.9575895010     0.8294521448
    4      H       1.3317112283     0.9575884342     0.8294505040
    5      H       2.2090633733     0.0000042650    -0.2167507562
    6      C      -1.2536467726    -0.0000013053     0.3165681710
    7      H       0.0000002370    -0.7314308766    -1.3313463695
    8      H       0.0000002025     0.7314281728    -1.3313449477
    9      H      -1.3317089506    -0.9575890026     0.8294534025
   10      H      -2.2090632504     0.0000061403    -0.2167513061
   11      H      -1.3317123659     0.9575874402     0.8294513844
 ----------------------------------------------------------------

    7    -119.0696511999      6.86E-06 Convergence criterion met
    6    -119.1146082234      3.72E-06 Convergence criterion met
 Total energy in the final basis set = -119.11460822

                    Orbital Energies (a.u.)
 --------------------------------------------------------------

 Alpha MOs
 -- Occupied --
-10.2714 -10.2661 -10.2661  -0.8857  -0.7818  -0.6878  -0.5488  -0.5378
 -0.4896  -0.4573  -0.4233  -0.4082  -0.3828

                    Cartesian Multipole Moments
 -----------------------------------------------------------------
    Charge (ESU x 10^10)
                -0.0000
    Dipole Moment (Debye)
         X       0.0000      Y       0.0000      Z      -0.3036
       Tot       0.3036
    Quadrupole Moments (Debye-Ang)
        XX     -21.4481     XY      -0.0000     YY     -21.1780
        XZ      -0.0000     YZ      -0.0000     ZZ     -22.3941

 Total job time:  27.57s(wall), 74.40s(cpu)
        *  Thank you very much for using Q-Chem.  Have a nice day.  *
