 Q-Chem 5.3 (devel), Q-Chem, Inc., Pleasanton, CA (2020)
 Q-Chem 5.3.0 for Intel X86 EM64T Linux

User input:
--------------------------------------------------------------
$rem
   JOBTYPE  sp
   EXCHANGE   omegaB97X-D
   BASIS   6-311+G(2df,2pd)
   UNRESTRICTED   False
   max_scf_cycles   250
   geom_opt_max_cycles   1500
   basis2 6-31G*
   scf_algorithm rca_diis
   SYM_IGNORE  TRUE
   print_input   true
   geom_opt_dmax   80
   pop_mulliken false
   XC_GRID 000075000302
$end

$molecule
0 1
C       1.2667409559     -0.0655586026     0.2451633786
C       -0.0000001294     0.2296838965     -0.5491406246
H       1.0071802088     -0.6790369526     1.1114908055
H       1.7550015458     0.8368847607     0.6157027441
H       1.9931624488     -0.6208647089     -0.3490329273
C       -1.2667405242     -0.0655619920     0.2451634376
H       0.0000006892     -0.4253334631     -1.4233403103
H       -0.0000016681     1.2528165884     -0.9331198003
H       -1.0071829806     -0.6790544751     1.1114816003
H       -1.9931672005     -0.6208542535     -0.3490396193
H       -1.7549934063     0.8368798683     0.6157163346
$end
--------------------------------------------------------------

             Standard Nuclear Orientation (Angstroms)
    I     Atom           X                Y                Z
 ----------------------------------------------------------------
    1      C       1.2667409559    -0.0655586026     0.2451633786
    2      C      -0.0000001294     0.2296838965    -0.5491406246
    3      H       1.0071802088    -0.6790369526     1.1114908055
    4      H       1.7550015458     0.8368847607     0.6157027441
    5      H       1.9931624488    -0.6208647089    -0.3490329273
    6      C      -1.2667405242    -0.0655619920     0.2451634376
    7      H       0.0000006892    -0.4253334631    -1.4233403103
    8      H      -0.0000016681     1.2528165884    -0.9331198003
    9      H      -1.0071829806    -0.6790544751     1.1114816003
   10      H      -1.9931672005    -0.6208542535    -0.3490396193
   11      H      -1.7549934063     0.8368798683     0.6157163346
 ----------------------------------------------------------------

    7    -119.0925119208      4.19E-06 Convergence criterion met
    6    -119.1359314804      4.02E-06 Convergence criterion met
 Total energy in the final basis set = -119.13593148

                    Orbital Energies (a.u.)
 --------------------------------------------------------------

 Alpha MOs
 -- Occupied --
-10.2720 -10.2636 -10.2636  -0.8817  -0.7759  -0.6784  -0.5446  -0.5298
 -0.4761  -0.4662  -0.4206  -0.4158  -0.3996

                    Cartesian Multipole Moments
 -----------------------------------------------------------------
    Charge (ESU x 10^10)
                 0.0000
    Dipole Moment (Debye)
         X      -0.0000      Y       0.0115      Z      -0.0895
       Tot       0.0902
    Quadrupole Moments (Debye-Ang)
        XX     -22.3117     XY      -0.0000     YY     -21.2877
        XZ      -0.0000     YZ       0.2064     ZZ     -21.8434

 Total job time:  27.46s(wall), 74.43s(cpu)
        *  Thank you very much for using Q-Chem.  Have a nice day.  *
