 Q-Chem 5.3 (devel), Q-Chem, Inc., Pleasanton, CA (2020)
 Q-Chem 5.3.0 for Intel X86 EM64T Linux

User input:
--------------------------------------------------------------
$rem
   JOBTYPE  sp
   EXCHANGE   omegaB97X-D
   BASIS   6-311+G(2df,2pd)
   UNRESTRICTED   False
   max_scf_cycles   250
   geom_opt_max_cycles   1500
   basis2 6-31G*
   scf_algorithm rca_diis
   SYM_IGNORE  TRUE
   print_input   true
   geom_opt_dmax   80
   pop_mulliken false
   XC_GRID 000075000302
$end

$molecule
0 1
C       1.2668507937     -0.0293846298     0.2601430429
C       0.0000000258     0.0000000040     -0.5865839374
H       1.3485370655     -0.8739800534     0.9458040362
H       1.2619771855     0.8842108575     0.8597486237
H       2.1632075309     0.0065470107     -0.3598375187
C       -1.2668506909     0.0293845665     0.2601431682
H       -0.0761210965     -0.8708239963     -1.2420439540
H       0.0761208811     0.8708242593     -1.2420436388
H       -1.2619771748     -0.8842108020     0.8597489192
H       -2.1632072682     -0.0065467028     -0.3598376662
H       -1.3485373127     0.8739801523     0.9458039438
$end
--------------------------------------------------------------

             Standard Nuclear Orientation (Angstroms)
    I     Atom           X                Y                Z
 ----------------------------------------------------------------
    1      C       1.2668507937    -0.0293846298     0.2601430429
    2      C       0.0000000258     0.0000000040    -0.5865839374
    3      H       1.3485370655    -0.8739800534     0.9458040362
    4      H       1.2619771855     0.8842108575     0.8597486237
    5      H       2.1632075309     0.0065470107    -0.3598375187
    6      C      -1.2668506909     0.0293845665     0.2601431682
    7      H      -0.0761210965    -0.8708239963    -1.2420439540
    8      H       0.0761208811     0.8708242593    -1.2420436388
    9      H      -1.2619771748    -0.8842108020     0.8597489192
   10      H      -2.1632072682    -0.0065467028    -0.3598376662
   11      H      -1.3485373127     0.8739801523     0.9458039438
 ----------------------------------------------------------------

    7    -119.1009806797      4.54E-06 Convergence criterion met
    6    -119.1439663203      3.89E-06 Convergence criterion met
 Total energy in the final basis set = -119.14396632

                    Orbital Energies (a.u.)
 --------------------------------------------------------------

 Alpha MOs
 -- Occupied --
-10.2744 -10.2652 -10.2652  -0.8817  -0.7775  -0.6776  -0.5465  -0.5245
 -0.4822  -0.4641  -0.4187  -0.4167  -0.4071

                    Cartesian Multipole Moments
 -----------------------------------------------------------------
    Charge (ESU x 10^10)
                -0.0000
    Dipole Moment (Debye)
         X      -0.0000      Y       0.0000      Z      -0.0831
       Tot       0.0831
    Quadrupole Moments (Debye-Ang)
        XX     -22.1557     XY       0.0367     YY     -21.3842
        XZ       0.0000     YZ      -0.0000     ZZ     -21.8433

 Total job time:  27.42s(wall), 74.34s(cpu)
        *  Thank you very much for using Q-Chem.  Have a nice day.  *
