 Q-Chem 5.3 (devel), Q-Chem, Inc., Pleasanton, CA (2020)
 Q-Chem 5.3.0 for Intel X86 EM64T Linux

User input:
--------------------------------------------------------------
$rem
   JOBTYPE  sp
   EXCHANGE   omegaB97X-D
   BASIS   6-311+G(2df,2pd)
   UNRESTRICTED   False
   max_scf_cycles   250
   geom_opt_max_cycles   1500
   basis2 6-31G*
   scf_algorithm rca_diis
   SYM_IGNORE  TRUE
   print_input   true
   geom_opt_dmax   80
   pop_mulliken false
   XC_GRID 000075000302
$end

$molecule
0 1
C       1.0671454790     0.0000008884     0.2602989460
C       0.0000001102     -0.0000029698     -0.8007944774
H       0.8824499370     -0.8717072856     0.8929643755
H       0.8824436059     0.8717090706     0.8929625300
H       2.1147042344     0.0000051853     -0.0334151237
C       -1.0671451229     -0.0000002797     0.2602991420
H       -0.0000005875     -0.8823883310     -1.4418905367
H       0.0000002527     0.8823814132     -1.4418918669
H       -0.8824523606     -0.8717113452     0.8929613775
H       -2.1147039129     0.0000091731     -0.0334154600
H       -0.8824416959     0.8717051468     0.8929661126
$end
--------------------------------------------------------------

             Standard Nuclear Orientation (Angstroms)
    I     Atom           X                Y                Z
 ----------------------------------------------------------------
    1      C       1.0671454790     0.0000008884     0.2602989460
    2      C       0.0000001102    -0.0000029698    -0.8007944774
    3      H       0.8824499370    -0.8717072856     0.8929643755
    4      H       0.8824436059     0.8717090706     0.8929625300
    5      H       2.1147042344     0.0000051853    -0.0334151237
    6      C      -1.0671451229    -0.0000002797     0.2602991420
    7      H      -0.0000005875    -0.8823883310    -1.4418905367
    8      H       0.0000002527     0.8823814132    -1.4418918669
    9      H      -0.8824523606    -0.8717113452     0.8929613775
   10      H      -2.1147039129     0.0000091731    -0.0334154600
   11      H      -0.8824416959     0.8717051468     0.8929661126
 ----------------------------------------------------------------

    7    -119.0659026992      4.59E-06 Convergence criterion met
    5    -119.1106266892      6.75E-06 Convergence criterion met
 Total energy in the final basis set = -119.11062669

                    Orbital Energies (a.u.)
 --------------------------------------------------------------

 Alpha MOs
 -- Occupied --
-10.2735 -10.2623 -10.2623  -0.9106  -0.7526  -0.6933  -0.5661  -0.5438
 -0.4536  -0.4487  -0.4344  -0.4250  -0.3936

                    Cartesian Multipole Moments
 -----------------------------------------------------------------
    Charge (ESU x 10^10)
                -0.0000
    Dipole Moment (Debye)
         X      -0.0000      Y       0.0000      Z      -0.0030
       Tot       0.0030
    Quadrupole Moments (Debye-Ang)
        XX     -22.9997     XY      -0.0000     YY     -21.1843
        XZ      -0.0000     YZ       0.0000     ZZ     -21.6088

 Total job time:  27.63s(wall), 73.84s(cpu)
        *  Thank you very much for using Q-Chem.  Have a nice day.  *
