 Q-Chem 5.3 (devel), Q-Chem, Inc., Pleasanton, CA (2020)
 Q-Chem 5.3.0 for Intel X86 EM64T Linux

User input:
--------------------------------------------------------------
$rem
   JOBTYPE  sp
   EXCHANGE   omegaB97X-D
   BASIS   6-311+G(2df,2pd)
   UNRESTRICTED   False
   max_scf_cycles   250
   geom_opt_max_cycles   1500
   basis2 6-31G*
   scf_algorithm rca_diis
   SYM_IGNORE  TRUE
   print_input   true
   geom_opt_dmax   80
   pop_mulliken false
   XC_GRID 000075000302
$end

$molecule
0 1
C       1.2841559799     0.0000000012     0.2836414195
C       0.0504608767     -0.0000000011     -0.5856356189
H       1.3061587121     -0.8960582429     0.9046694252
H       1.3061587162     0.8960582445     0.9046694265
H       2.1633385238     -0.0000000016     -0.3605231757
C       -1.2515284427     -0.0000000173     0.2347670476
H       -0.0397249419     -0.8701087723     -1.2402606598
H       -0.0397249877     0.8701087827     -1.2402606327
H       -1.3075020746     -0.8646922559     0.9014368970
H       -2.1642903620     0.0000006671     -0.3628959821
H       -1.3075020604     0.8646922617     0.9014368723
$end
--------------------------------------------------------------

             Standard Nuclear Orientation (Angstroms)
    I     Atom           X                Y                Z
 ----------------------------------------------------------------
    1      C       1.2841559799     0.0000000012     0.2836414195
    2      C       0.0504608767    -0.0000000011    -0.5856356189
    3      H       1.3061587121    -0.8960582429     0.9046694252
    4      H       1.3061587162     0.8960582445     0.9046694265
    5      H       2.1633385238    -0.0000000016    -0.3605231757
    6      C      -1.2515284427    -0.0000000173     0.2347670476
    7      H      -0.0397249419    -0.8701087723    -1.2402606598
    8      H      -0.0397249877     0.8701087827    -1.2402606327
    9      H      -1.3075020746    -0.8646922559     0.9014368970
   10      H      -2.1642903620     0.0000006671    -0.3628959821
   11      H      -1.3075020604     0.8646922617     0.9014368723
 ----------------------------------------------------------------

    7    -119.0998932770      4.66E-06 Convergence criterion met
    6    -119.1429364067      3.89E-06 Convergence criterion met
 Total energy in the final basis set = -119.14293641

                    Orbital Energies (a.u.)
 --------------------------------------------------------------

 Alpha MOs
 -- Occupied --
-10.2741 -10.2671 -10.2635  -0.8817  -0.7777  -0.6780  -0.5460  -0.5242
 -0.4839  -0.4640  -0.4244  -0.4106  -0.4062

                    Cartesian Multipole Moments
 -----------------------------------------------------------------
    Charge (ESU x 10^10)
                 0.0000
    Dipole Moment (Debye)
         X       0.0227      Y       0.0000      Z      -0.0818
       Tot       0.0849
    Quadrupole Moments (Debye-Ang)
        XX     -22.1596     XY      -0.0000     YY     -21.3821
        XZ       0.1335     YZ      -0.0000     ZZ     -21.8570

 Total job time:  27.43s(wall), 74.39s(cpu)
        *  Thank you very much for using Q-Chem.  Have a nice day.  *
