 Q-Chem 5.3 (devel), Q-Chem, Inc., Pleasanton, CA (2020)
 Q-Chem 5.3.0 for Intel X86 EM64T Linux

User input:
--------------------------------------------------------------
$rem
   JOBTYPE  sp
   EXCHANGE   omegaB97X-D
   BASIS   6-311+G(2df,2pd)
   UNRESTRICTED   False
   max_scf_cycles   250
   geom_opt_max_cycles   1500
   basis2 6-31G*
   scf_algorithm rca_diis
   SYM_IGNORE  TRUE
   print_input   true
   geom_opt_dmax   80
   pop_mulliken false
   XC_GRID 000075000302
$end

$molecule
0 1
C       1.2677894687     0.0000000005     0.2641692646
C       0.0000000680     -0.0000000036     -0.5748212764
H       1.3055437277     -0.8828505653     0.9105869046
H       1.3055437400     0.8828505534     0.9105868731
H       2.1565599347     -0.0000000073     -0.3483578543
C       -1.2677892923     0.0000000370     0.2641691811
H       0.0000000765     -0.9317789441     -1.2790521246
H       0.0000000319     0.9317790571     -1.2790522257
H       -1.3055436648     -0.8828513856     0.9105874752
H       -2.1565605133     0.0000007216     -0.3483584433
H       -1.3055436377     0.8828512022     0.9105872446
$end
--------------------------------------------------------------

             Standard Nuclear Orientation (Angstroms)
    I     Atom           X                Y                Z
 ----------------------------------------------------------------
    1      C       1.2677894687     0.0000000005     0.2641692646
    2      C       0.0000000680    -0.0000000036    -0.5748212764
    3      H       1.3055437277    -0.8828505653     0.9105869046
    4      H       1.3055437400     0.8828505534     0.9105868731
    5      H       2.1565599347    -0.0000000073    -0.3483578543
    6      C      -1.2677892923     0.0000000370     0.2641691811
    7      H       0.0000000765    -0.9317789441    -1.2790521246
    8      H       0.0000000319     0.9317790571    -1.2790522257
    9      H      -1.3055436648    -0.8828513856     0.9105874752
   10      H      -2.1565605133     0.0000007216    -0.3483584433
   11      H      -1.3055436377     0.8828512022     0.9105872446
 ----------------------------------------------------------------

    7    -119.0976821279      4.44E-06 Convergence criterion met
    6    -119.1400390462      4.34E-06 Convergence criterion met
 Total energy in the final basis set = -119.14003905

                    Orbital Energies (a.u.)
 --------------------------------------------------------------

 Alpha MOs
 -- Occupied --
-10.2898 -10.2659 -10.2659  -0.8791  -0.7795  -0.6675  -0.5401  -0.5266
 -0.4838  -0.4640  -0.4228  -0.4142  -0.3986

                    Cartesian Multipole Moments
 -----------------------------------------------------------------
    Charge (ESU x 10^10)
                 0.0000
    Dipole Moment (Debye)
         X       0.0000      Y       0.0000      Z       0.0124
       Tot       0.0124
    Quadrupole Moments (Debye-Ang)
        XX     -22.0883     XY      -0.0000     YY     -21.4749
        XZ       0.0000     YZ      -0.0000     ZZ     -22.0887

 Total job time:  26.88s(wall), 73.27s(cpu)
        *  Thank you very much for using Q-Chem.  Have a nice day.  *
