 Q-Chem 5.3 (devel), Q-Chem, Inc., Pleasanton, CA (2020)
 Q-Chem 5.3.0 for Intel X86 EM64T Linux

User input:
--------------------------------------------------------------
$rem
   JOBTYPE  sp
   EXCHANGE   omegaB97X-D
   BASIS   6-311+G(2df,2pd)
   UNRESTRICTED   False
   max_scf_cycles   250
   geom_opt_max_cycles   1500
   basis2 6-31G*
   scf_algorithm rca_diis
   SYM_IGNORE  TRUE
   print_input   true
   geom_opt_dmax   80
   pop_mulliken false
   XC_GRID 000075000302
$end

$molecule
0 1
C       1.2713020605     0.0000007073     0.2213105707
C       0.0000000095     0.0000014586     -0.6436348646
H       1.2828365829     -0.8194219875     0.9456272884
H       1.2828352608     0.8194224917     0.9456282239
H       2.1306690979     -0.0000028770     -0.4459280744
C       -1.2713020966     0.0000009538     0.2213107489
H       -0.0000001649     -0.9516627910     -1.1742969521
H       -0.0000001849     0.9516649202     -1.1742983910
H       -1.2828369241     -0.8194225229     0.9456265681
H       -2.1306692295     -0.0000030251     -0.4459277981
H       -1.2828344723     0.8194233380     0.9456276991
$end
--------------------------------------------------------------

             Standard Nuclear Orientation (Angstroms)
    I     Atom           X                Y                Z
 ----------------------------------------------------------------
    1      C       1.2713020605     0.0000007073     0.2213105707
    2      C       0.0000000095     0.0000014586    -0.6436348646
    3      H       1.2828365829    -0.8194219875     0.9456272884
    4      H       1.2828352608     0.8194224917     0.9456282239
    5      H       2.1306690979    -0.0000028770    -0.4459280744
    6      C      -1.2713020966     0.0000009538     0.2213107489
    7      H      -0.0000001649    -0.9516627910    -1.1742969521
    8      H      -0.0000001849     0.9516649202    -1.1742983910
    9      H      -1.2828369241    -0.8194225229     0.9456265681
   10      H      -2.1306692295    -0.0000030251    -0.4459277981
   11      H      -1.2828344723     0.8194233380     0.9456276991
 ----------------------------------------------------------------

    7    -119.0888215454      4.98E-06 Convergence criterion met
    5    -119.1323130371      8.83E-06 Convergence criterion met
 Total energy in the final basis set = -119.13231304

                    Orbital Energies (a.u.)
 --------------------------------------------------------------

 Alpha MOs
 -- Occupied --
-10.2766 -10.2646 -10.2646  -0.8808  -0.7758  -0.6766  -0.5508  -0.5233
 -0.5041  -0.4435  -0.4159  -0.4099  -0.4090

                    Cartesian Multipole Moments
 -----------------------------------------------------------------
    Charge (ESU x 10^10)
                -0.0000
    Dipole Moment (Debye)
         X      -0.0000      Y      -0.0000      Z       0.0352
       Tot       0.0352
    Quadrupole Moments (Debye-Ang)
        XX     -22.6829     XY       0.0000     YY     -21.6408
        XZ       0.0000     YZ       0.0000     ZZ     -21.5012

 Total job time:  25.42s(wall), 68.78s(cpu)
        *  Thank you very much for using Q-Chem.  Have a nice day.  *
