 Q-Chem 5.3 (devel), Q-Chem, Inc., Pleasanton, CA (2020)
 Q-Chem 5.3.0 for Intel X86 EM64T Linux

User input:
--------------------------------------------------------------
$rem
   JOBTYPE  sp
   EXCHANGE   omegaB97X-D
   BASIS   6-311+G(2df,2pd)
   UNRESTRICTED   False
   max_scf_cycles   250
   geom_opt_max_cycles   1500
   basis2 6-31G*
   scf_algorithm rca_diis
   SYM_IGNORE  TRUE
   print_input   true
   geom_opt_dmax   80
   pop_mulliken false
   XC_GRID 000075000302
$end

$molecule
0 1
C       1.2713099421     0.0000000456     0.2339407344
C       -0.0000000193     -0.0000000636     -0.5731224633
H       1.2588360964     -0.8708761313     0.8935563507
H       1.2588362086     0.8708761939     0.8935563829
H       2.2009114802     -0.0000000600     -0.3331572423
C       -1.2713099104     0.0000000216     0.2339406702
H       0.0000000720     -0.8719853019     -1.2308125116
H       -0.0000000937     0.8719852629     -1.2308123945
H       -1.2588361222     -0.8708761332     0.8935562969
H       -2.2009115549     0.0000006735     -0.3331571731
H       -1.2588361595     0.8708761585     0.8935563688
$end
--------------------------------------------------------------

             Standard Nuclear Orientation (Angstroms)
    I     Atom           X                Y                Z
 ----------------------------------------------------------------
    1      C       1.2713099421     0.0000000456     0.2339407344
    2      C      -0.0000000193    -0.0000000636    -0.5731224633
    3      H       1.2588360964    -0.8708761313     0.8935563507
    4      H       1.2588362086     0.8708761939     0.8935563829
    5      H       2.2009114802    -0.0000000600    -0.3331572423
    6      C      -1.2713099104     0.0000000216     0.2339406702
    7      H       0.0000000720    -0.8719853019    -1.2308125116
    8      H      -0.0000000937     0.8719852629    -1.2308123945
    9      H      -1.2588361222    -0.8708761332     0.8935562969
   10      H      -2.2009115549     0.0000006735    -0.3331571731
   11      H      -1.2588361595     0.8708761585     0.8935563688
 ----------------------------------------------------------------

    7    -119.1000420971      4.44E-06 Convergence criterion met
    6    -119.1433106344      4.09E-06 Convergence criterion met
 Total energy in the final basis set = -119.14331063

                    Orbital Energies (a.u.)
 --------------------------------------------------------------

 Alpha MOs
 -- Occupied --
-10.2708 -10.2651 -10.2651  -0.8869  -0.7796  -0.6764  -0.5486  -0.5319
 -0.4809  -0.4606  -0.4347  -0.4102  -0.4018

                    Cartesian Multipole Moments
 -----------------------------------------------------------------
    Charge (ESU x 10^10)
                 0.0000
    Dipole Moment (Debye)
         X      -0.0000      Y       0.0000      Z      -0.0615
       Tot       0.0615
    Quadrupole Moments (Debye-Ang)
        XX     -21.8179     XY      -0.0000     YY     -21.4976
        XZ      -0.0000     YZ      -0.0000     ZZ     -22.0648

 Total job time:  25.48s(wall), 70.64s(cpu)
        *  Thank you very much for using Q-Chem.  Have a nice day.  *
