 Q-Chem 5.3 (devel), Q-Chem, Inc., Pleasanton, CA (2020)
 Q-Chem 5.3.0 for Intel X86 EM64T Linux

User input:
--------------------------------------------------------------
$rem
   JOBTYPE  sp
   EXCHANGE   omegaB97X-D
   BASIS   6-311+G(2df,2pd)
   UNRESTRICTED   False
   max_scf_cycles   250
   geom_opt_max_cycles   1500
   basis2 6-31G*
   scf_algorithm rca_diis
   SYM_IGNORE  TRUE
   print_input   true
   geom_opt_dmax   80
   pop_mulliken false
   XC_GRID 000075000302
$end

$molecule
0 1
C       1.2671297199     -0.0262208772     0.2572070033
C       -0.0000000112     0.0937116194     -0.5810762860
H       1.1556690878     -0.8243302782     0.9945014934
H       1.4801165296     0.8960195834     0.8007646119
H       2.1359420406     -0.2603681450     -0.3587983230
C       -1.2671295944     -0.0262222628     0.2572071112
H       0.0000004102     -0.7002528858     -1.3315318145
H       -0.0000006850     1.0363469975     -1.1336961844
H       -1.1556714959     -0.8243359922     0.9944971846
H       -2.1359427918     -0.2603630254     -0.3587995089
H       -1.4801132704     0.8960159323     0.8007697313
$end
--------------------------------------------------------------

             Standard Nuclear Orientation (Angstroms)
    I     Atom           X                Y                Z
 ----------------------------------------------------------------
    1      C       1.2671297199    -0.0262208772     0.2572070033
    2      C      -0.0000000112     0.0937116194    -0.5810762860
    3      H       1.1556690878    -0.8243302782     0.9945014934
    4      H       1.4801165296     0.8960195834     0.8007646119
    5      H       2.1359420406    -0.2603681450    -0.3587983230
    6      C      -1.2671295944    -0.0262222628     0.2572071112
    7      H       0.0000004102    -0.7002528858    -1.3315318145
    8      H      -0.0000006850     1.0363469975    -1.1336961844
    9      H      -1.1556714959    -0.8243359922     0.9944971846
   10      H      -2.1359427918    -0.2603630254    -0.3587995089
   11      H      -1.4801132704     0.8960159323     0.8007697313
 ----------------------------------------------------------------

    7    -119.1007549405      4.42E-06 Convergence criterion met
    6    -119.1437757407      3.90E-06 Convergence criterion met
 Total energy in the final basis set = -119.14377574

                    Orbital Energies (a.u.)
 --------------------------------------------------------------

 Alpha MOs
 -- Occupied --
-10.2736 -10.2648 -10.2648  -0.8812  -0.7768  -0.6778  -0.5456  -0.5253
 -0.4814  -0.4639  -0.4189  -0.4179  -0.4053

                    Cartesian Multipole Moments
 -----------------------------------------------------------------
    Charge (ESU x 10^10)
                -0.0000
    Dipole Moment (Debye)
         X      -0.0000      Y       0.0059      Z      -0.0870
       Tot       0.0872
    Quadrupole Moments (Debye-Ang)
        XX     -22.2038     XY      -0.0000     YY     -21.3391
        XZ      -0.0000     YZ       0.0681     ZZ     -21.8422

 Total job time:  27.64s(wall), 74.88s(cpu)
        *  Thank you very much for using Q-Chem.  Have a nice day.  *
