 Q-Chem 5.3 (devel), Q-Chem, Inc., Pleasanton, CA (2020)
 Q-Chem 5.3.0 for Intel X86 EM64T Linux

User input:
--------------------------------------------------------------
$rem
   JOBTYPE  sp
   EXCHANGE   omegaB97X-D
   BASIS   6-311+G(2df,2pd)
   UNRESTRICTED   False
   max_scf_cycles   250
   geom_opt_max_cycles   1500
   basis2 6-31G*
   scf_algorithm rca_diis
   SYM_IGNORE  TRUE
   print_input   true
   geom_opt_dmax   80
   pop_mulliken false
   XC_GRID 000075000302
$end

$molecule
0 1
C       1.2671357162     0.0131539891     0.2590970869
C       -0.0000002888     0.0000001408     -0.5876109746
H       1.3598496161     -0.8763993693     0.8889167408
H       1.2508000021     0.8814730853     0.9175346007
H       2.1633217803     -0.0604959171     -0.3577891398
C       -1.2671361590     -0.0131537705     0.2590965682
H       0.0133005208     -0.8737721323     -1.2434325269
H       -0.0132998571     0.8737723601     -1.2434326353
H       -1.2508006662     -0.8814707796     0.9175369509
H       -2.1633211459     0.0604957036     -0.3577911701
H       -1.3598495789     0.8763973559     0.8889195181
$end
--------------------------------------------------------------

             Standard Nuclear Orientation (Angstroms)
    I     Atom           X                Y                Z
 ----------------------------------------------------------------
    1      C       1.2671357162     0.0131539891     0.2590970869
    2      C      -0.0000002888     0.0000001408    -0.5876109746
    3      H       1.3598496161    -0.8763993693     0.8889167408
    4      H       1.2508000021     0.8814730853     0.9175346007
    5      H       2.1633217803    -0.0604959171    -0.3577891398
    6      C      -1.2671361590    -0.0131537705     0.2590965682
    7      H       0.0133005208    -0.8737721323    -1.2434325269
    8      H      -0.0132998571     0.8737723601    -1.2434326353
    9      H      -1.2508006662    -0.8814707796     0.9175369509
   10      H      -2.1633211459     0.0604957036    -0.3577911701
   11      H      -1.3598495789     0.8763973559     0.8889195181
 ----------------------------------------------------------------

    7    -119.0995581442      4.69E-06 Convergence criterion met
    6    -119.1426603815      3.89E-06 Convergence criterion met
 Total energy in the final basis set = -119.14266038

                    Orbital Energies (a.u.)
 --------------------------------------------------------------

 Alpha MOs
 -- Occupied --
-10.2741 -10.2652 -10.2652  -0.8813  -0.7775  -0.6780  -0.5466  -0.5270
 -0.4821  -0.4607  -0.4231  -0.4173  -0.4022

                    Cartesian Multipole Moments
 -----------------------------------------------------------------
    Charge (ESU x 10^10)
                -0.0000
    Dipole Moment (Debye)
         X       0.0000      Y      -0.0000      Z      -0.0825
       Tot       0.0825
    Quadrupole Moments (Debye-Ang)
        XX     -22.1601     XY      -0.5337     YY     -21.3719
        XZ      -0.0000     YZ       0.0000     ZZ     -21.8596

 Total job time:  26.65s(wall), 72.88s(cpu)
        *  Thank you very much for using Q-Chem.  Have a nice day.  *
