 Q-Chem 5.3 (devel), Q-Chem, Inc., Pleasanton, CA (2020)
 Q-Chem 5.3.0 for Intel X86 EM64T Linux

User input:
--------------------------------------------------------------
$rem
   JOBTYPE  sp
   EXCHANGE   omegaB97X-D
   BASIS   6-311+G(2df,2pd)
   max_scf_cycles   250
   geom_opt_max_cycles   1500
   basis2 6-31G*
   scf_algorithm rca_diis
   SYM_IGNORE  TRUE
   print_input   true
   geom_opt_dmax   80
   pop_mulliken false
   XC_GRID 000075000302
$end

$molecule
0 1
C       1.3187408492     0.0000000817     0.2574686100
C       0.0000000006     -0.0000000023     -0.6540076343
H       1.3024390841     -0.8744809902     0.9121053316
H       1.3024393612     0.8744809395     0.9121056150
H       2.2705575758     -0.0000000709     -0.2755805302
C       -1.3187409145     -0.0000001275     0.2574685733
H       0.0000003891     -0.8747115520     -1.3085728143
H       -0.0000002182     0.8747116134     -1.3085727259
H       -1.3024393565     -0.8744808531     0.9121057338
H       -2.2705577189     0.0000006782     -0.2755804219
H       -1.3024391123     0.8744809492     0.9121052819
$end
--------------------------------------------------------------

             Standard Nuclear Orientation (Angstroms)
    I     Atom           X                Y                Z
 ----------------------------------------------------------------
    1      C       1.3187408492     0.0000000817     0.2574686100
    2      C       0.0000000006    -0.0000000023    -0.6540076343
    3      H       1.3024390841    -0.8744809902     0.9121053316
    4      H       1.3024393612     0.8744809395     0.9121056150
    5      H       2.2705575758    -0.0000000709    -0.2755805302
    6      C      -1.3187409145    -0.0000001275     0.2574685733
    7      H       0.0000003891    -0.8747115520    -1.3085728143
    8      H      -0.0000002182     0.8747116134    -1.3085727259
    9      H      -1.3024393565    -0.8744808531     0.9121057338
   10      H      -2.2705577189     0.0000006782    -0.2755804219
   11      H      -1.3024391123     0.8744809492     0.9121052819
 ----------------------------------------------------------------

    7    -119.0965034795      5.46E-06 Convergence criterion met
    5    -119.1389154821      9.86E-06 Convergence criterion met
 Total energy in the final basis set = -119.13891548

                    Orbital Energies (a.u.)
 --------------------------------------------------------------

 Alpha MOs
 -- Occupied --
-10.2873 -10.2719 -10.2719  -0.8617  -0.7724  -0.6850  -0.5347  -0.5175
 -0.4718  -0.4617  -0.4199  -0.4151  -0.4151

                    Cartesian Multipole Moments
 -----------------------------------------------------------------
    Charge (ESU x 10^10)
                 0.0000
    Dipole Moment (Debye)
         X       0.0000      Y       0.0000      Z      -0.0263
       Tot       0.0263
    Quadrupole Moments (Debye-Ang)
        XX     -21.7624     XY      -0.0000     YY     -21.5424
        XZ      -0.0000     YZ      -0.0000     ZZ     -21.9029

 Total job time:  24.00s(wall), 64.85s(cpu)
        *  Thank you very much for using Q-Chem.  Have a nice day.  *
