 Q-Chem 5.3 (devel), Q-Chem, Inc., Pleasanton, CA (2020)
 Q-Chem 5.3.0 for Intel X86 EM64T Linux

User input:
--------------------------------------------------------------
$rem
   JOBTYPE  sp
   EXCHANGE   omegaB97X-D
   BASIS   6-311+G(2df,2pd)
   max_scf_cycles   250
   geom_opt_max_cycles   1500
   basis2 6-31G*
   scf_algorithm rca_diis
   SYM_IGNORE  TRUE
   print_input   true
   geom_opt_dmax   80
   pop_mulliken false
   XC_GRID 000075000302
$end

$molecule
0 1
C       1.2658018732     -0.0585880404     0.2620506729
C       0.0000000511     -0.0000000560     -0.5847280800
H       1.3915327839     -0.8646217751     0.9849738445
H       1.2188842066     0.8843040501     0.8143135324
H       2.1589938701     0.0134811452     -0.3593481235
C       -1.2658016742     0.0585879076     0.2620509111
H       -0.1515969153     -0.8617235361     -1.2391038959
H       0.1515965604     0.8617240023     -1.2391032252
H       -1.2188842953     -0.8843039767     0.8143141508
H       -2.1589933531     -0.0134810209     -0.3593484120
H       -1.3915331680     0.8646219659     0.9849736437
$end
--------------------------------------------------------------

             Standard Nuclear Orientation (Angstroms)
    I     Atom           X                Y                Z
 ----------------------------------------------------------------
    1      C       1.2658018732    -0.0585880404     0.2620506729
    2      C       0.0000000511    -0.0000000560    -0.5847280800
    3      H       1.3915327839    -0.8646217751     0.9849738445
    4      H       1.2188842066     0.8843040501     0.8143135324
    5      H       2.1589938701     0.0134811452    -0.3593481235
    6      C      -1.2658016742     0.0585879076     0.2620509111
    7      H      -0.1515969153    -0.8617235361    -1.2391038959
    8      H       0.1515965604     0.8617240023    -1.2391032252
    9      H      -1.2188842953    -0.8843039767     0.8143141508
   10      H      -2.1589933531    -0.0134810209    -0.3593484120
   11      H      -1.3915331680     0.8646219659     0.9849736437
 ----------------------------------------------------------------

    7    -119.0944852032      4.65E-06 Convergence criterion met
    6    -119.1376884667      3.96E-06 Convergence criterion met
 Total energy in the final basis set = -119.13768847

                    Orbital Energies (a.u.)
 --------------------------------------------------------------

 Alpha MOs
 -- Occupied --
-10.2757 -10.2654 -10.2654  -0.8833  -0.7786  -0.6775  -0.5489  -0.5253
 -0.4811  -0.4656  -0.4187  -0.4137  -0.4059

                    Cartesian Multipole Moments
 -----------------------------------------------------------------
    Charge (ESU x 10^10)
                -0.0000
    Dipole Moment (Debye)
         X      -0.0000      Y       0.0000      Z      -0.0752
       Tot       0.0752
    Quadrupole Moments (Debye-Ang)
        XX     -22.1219     XY       0.0744     YY     -21.4482
        XZ       0.0000     YZ      -0.0000     ZZ     -21.8495

 Total job time:  27.08s(wall), 73.32s(cpu)
        *  Thank you very much for using Q-Chem.  Have a nice day.  *
