 Q-Chem 5.3 (devel), Q-Chem, Inc., Pleasanton, CA (2020)
 Q-Chem 5.3.0 for Intel X86 EM64T Linux

User input:
--------------------------------------------------------------
$rem
   JOBTYPE  sp
   EXCHANGE   omegaB97X-D
   BASIS   6-311+G(2df,2pd)
   UNRESTRICTED   False
   max_scf_cycles   250
   geom_opt_max_cycles   1500
   basis2 6-31G*
   scf_algorithm rca_diis
   SYM_IGNORE  TRUE
   print_input   true
   geom_opt_dmax   80
   pop_mulliken false
   XC_GRID 000075000302
$end

$molecule
0 1
C       1.2444065129     -0.0000000505     0.2158318540
C       -0.0000003548     -0.0000000847     -0.6121841451
H       1.3940599689     -0.8334519537     0.9094022840
H       1.3940598837     0.8334518968     0.9094022398
H       2.2112556881     -0.0000000735     -0.2942773287
C       -1.2444074913     0.0000000039     0.2158322049
H       -0.0000001233     -0.8753968589     -1.2637442631
H       -0.0000005244     0.8753967947     -1.2637441011
H       -1.3940587435     -0.8334521662     0.9094026987
H       -2.2112554770     0.0000009827     -0.2942789525
H       -1.3940593998     0.8334521754     0.9094025278
$end
--------------------------------------------------------------

             Standard Nuclear Orientation (Angstroms)
    I     Atom           X                Y                Z
 ----------------------------------------------------------------
    1      C       1.2444065129    -0.0000000505     0.2158318540
    2      C      -0.0000003548    -0.0000000847    -0.6121841451
    3      H       1.3940599689    -0.8334519537     0.9094022840
    4      H       1.3940598837     0.8334518968     0.9094022398
    5      H       2.2112556881    -0.0000000735    -0.2942773287
    6      C      -1.2444074913     0.0000000039     0.2158322049
    7      H      -0.0000001233    -0.8753968589    -1.2637442631
    8      H      -0.0000005244     0.8753967947    -1.2637441011
    9      H      -1.3940587435    -0.8334521662     0.9094026987
   10      H      -2.2112554770     0.0000009827    -0.2942789525
   11      H      -1.3940593998     0.8334521754     0.9094025278
 ----------------------------------------------------------------

    7    -119.0899033537      4.53E-06 Convergence criterion met
    5    -119.1338100126      9.87E-06 Convergence criterion met
 Total energy in the final basis set = -119.13381001

                    Orbital Energies (a.u.)
 --------------------------------------------------------------

 Alpha MOs
 -- Occupied --
-10.2791 -10.2638 -10.2638  -0.8870  -0.7821  -0.6909  -0.5421  -0.5263
 -0.4921  -0.4495  -0.4236  -0.4202  -0.4010

                    Cartesian Multipole Moments
 -----------------------------------------------------------------
    Charge (ESU x 10^10)
                 0.0000
    Dipole Moment (Debye)
         X       0.0000      Y       0.0000      Z      -0.0111
       Tot       0.0111
    Quadrupole Moments (Debye-Ang)
        XX     -21.3670     XY      -0.0000     YY     -21.7882
        XZ       0.0000     YZ      -0.0000     ZZ     -21.6953

 Total job time:  25.39s(wall), 67.94s(cpu)
        *  Thank you very much for using Q-Chem.  Have a nice day.  *
