 Q-Chem 5.3 (devel), Q-Chem, Inc., Pleasanton, CA (2020)
 Q-Chem 5.3.0 for Intel X86 EM64T Linux

User input:
--------------------------------------------------------------
$rem
   JOBTYPE  sp
   EXCHANGE   omegaB97X-D
   BASIS   6-311+G(2df,2pd)
   UNRESTRICTED   False
   max_scf_cycles   250
   geom_opt_max_cycles   1500
   basis2 6-31G*
   scf_algorithm rca_diis
   SYM_IGNORE  TRUE
   print_input   true
   geom_opt_dmax   80
   pop_mulliken false
   XC_GRID 000075000302
$end

$molecule
0 1
C       1.2390094118     -0.0000002175     0.3605003608
C       0.0000000603     0.0000002986     -0.6468543227
H       1.4588054577     -0.8987977827     0.9349949292
H       1.4588051119     0.8987975748     0.9349947417
H       1.9892524970     0.0000002167     -0.4393485799
C       -1.2390095681     -0.0000001970     0.3605006147
H       -0.0000002930     -0.8798803368     -1.2971916773
H       0.0000000851     0.8798805362     -1.2971922171
H       -1.4588054236     -0.8987978201     0.9349951181
H       -1.9892520479     0.0000007273     -0.4393487773
H       -1.4588053519     0.8987976666     0.9349948288
$end
--------------------------------------------------------------

             Standard Nuclear Orientation (Angstroms)
    I     Atom           X                Y                Z
 ----------------------------------------------------------------
    1      C       1.2390094118    -0.0000002175     0.3605003608
    2      C       0.0000000603     0.0000002986    -0.6468543227
    3      H       1.4588054577    -0.8987977827     0.9349949292
    4      H       1.4588051119     0.8987975748     0.9349947417
    5      H       1.9892524970     0.0000002167    -0.4393485799
    6      C      -1.2390095681    -0.0000001970     0.3605006147
    7      H      -0.0000002930    -0.8798803368    -1.2971916773
    8      H       0.0000000851     0.8798805362    -1.2971922171
    9      H      -1.4588054236    -0.8987978201     0.9349951181
   10      H      -1.9892520479     0.0000007273    -0.4393487773
   11      H      -1.4588053519     0.8987976666     0.9349948288
 ----------------------------------------------------------------

    7    -119.0640242638      4.68E-06 Convergence criterion met
    5    -119.1074957654      9.26E-06 Convergence criterion met
 Total energy in the final basis set = -119.10749577

                    Orbital Energies (a.u.)
 --------------------------------------------------------------

 Alpha MOs
 -- Occupied --
-10.2918 -10.2653 -10.2653  -0.8670  -0.7712  -0.6849  -0.5377  -0.4971
 -0.4899  -0.4692  -0.4427  -0.4268  -0.3534

                    Cartesian Multipole Moments
 -----------------------------------------------------------------
    Charge (ESU x 10^10)
                -0.0000
    Dipole Moment (Debye)
         X       0.0000      Y       0.0000      Z      -0.2878
       Tot       0.2878
    Quadrupole Moments (Debye-Ang)
        XX     -23.3891     XY      -0.0000     YY     -21.0744
        XZ       0.0000     YZ      -0.0000     ZZ     -21.1118

 Total job time:  25.13s(wall), 67.10s(cpu)
        *  Thank you very much for using Q-Chem.  Have a nice day.  *
