 Q-Chem 5.3 (devel), Q-Chem, Inc., Pleasanton, CA (2020)
 Q-Chem 5.3.0 for Intel X86 EM64T Linux

User input:
--------------------------------------------------------------
$rem
   JOBTYPE  sp
   EXCHANGE   omegaB97X-D
   BASIS   6-311+G(2df,2pd)
   UNRESTRICTED   False
   max_scf_cycles   250
   geom_opt_max_cycles   1500
   basis2 6-31G*
   scf_algorithm rca_diis
   SYM_IGNORE  TRUE
   print_input   true
   geom_opt_dmax   80
   pop_mulliken false
   XC_GRID 000075000302
$end

$molecule
0 1
C       1.2660613400     -0.0537903631     0.2597851965
C       0.0000000129     0.0000011732     -0.5869235460
H       1.4166512613     -1.0553696323     0.6667643024
H       1.2043681781     0.6378809835     1.1027948161
H       2.1505306852     0.2062723377     -0.3226268002
C       -1.2660612887     0.0537893416     0.2597854702
H       -0.0268395017     -0.8734673638     -1.2427352128
H       0.0268393650     0.8734723208     -1.2427318285
H       -1.2043646763     -0.6378785646     1.1027975364
H       -2.1505294339     -0.2062788143     -0.3226259217
H       -1.4166560026     1.0553692472     0.6667610066
$end
--------------------------------------------------------------

             Standard Nuclear Orientation (Angstroms)
    I     Atom           X                Y                Z
 ----------------------------------------------------------------
    1      C       1.2660613400    -0.0537903631     0.2597851965
    2      C       0.0000000129     0.0000011732    -0.5869235460
    3      H       1.4166512613    -1.0553696323     0.6667643024
    4      H       1.2043681781     0.6378809835     1.1027948161
    5      H       2.1505306852     0.2062723377    -0.3226268002
    6      C      -1.2660612887     0.0537893416     0.2597854702
    7      H      -0.0268395017    -0.8734673638    -1.2427352128
    8      H       0.0268393650     0.8734723208    -1.2427318285
    9      H      -1.2043646763    -0.6378785646     1.1027975364
   10      H      -2.1505294339    -0.2062788143    -0.3226259217
   11      H      -1.4166560026     1.0553692472     0.6667610066
 ----------------------------------------------------------------

    7    -119.1012914090      4.49E-06 Convergence criterion met
    6    -119.1442633084      3.90E-06 Convergence criterion met
 Total energy in the final basis set = -119.14426331

                    Orbital Energies (a.u.)
 --------------------------------------------------------------

 Alpha MOs
 -- Occupied --
-10.2735 -10.2649 -10.2649  -0.8811  -0.7770  -0.6776  -0.5453  -0.5246
 -0.4817  -0.4655  -0.4180  -0.4179  -0.4053

                    Cartesian Multipole Moments
 -----------------------------------------------------------------
    Charge (ESU x 10^10)
                -0.0000
    Dipole Moment (Debye)
         X      -0.0000      Y       0.0000      Z      -0.0848
       Tot       0.0848
    Quadrupole Moments (Debye-Ang)
        XX     -22.1908     XY       0.0407     YY     -21.3304
        XZ       0.0000     YZ       0.0000     ZZ     -21.8558

 Total job time:  28.63s(wall), 76.99s(cpu)
        *  Thank you very much for using Q-Chem.  Have a nice day.  *
