 Q-Chem 5.3 (devel), Q-Chem, Inc., Pleasanton, CA (2020)
 Q-Chem 5.3.0 for Intel X86 EM64T Linux

User input:
--------------------------------------------------------------
$rem
   JOBTYPE  sp
   EXCHANGE   omegaB97X-D
   BASIS   6-311+G(2df,2pd)
   UNRESTRICTED   False
   max_scf_cycles   250
   geom_opt_max_cycles   1500
   basis2 6-31G*
   scf_algorithm rca_diis
   SYM_IGNORE  TRUE
   print_input   true
   geom_opt_dmax   80
   pop_mulliken false
   XC_GRID 000075000302
$end

$molecule
0 1
C       1.2671859632     0.0131086937     0.2589267071
C       -0.0000000133     -0.0469880262     -0.5856731923
H       1.3904911263     -0.8937538769     0.8540372800
H       1.2264053810     0.8572669379     0.9505364583
H       2.1574025823     0.1310768207     -0.3597172072
C       -1.2671859880     0.0131094836     0.2589266125
H       -0.0000001996     -0.9566857740     -1.1909032996
H       0.0000001658     0.7882732937     -1.2899447782
H       -1.3904894609     -0.8937516888     0.8540396968
H       -2.1574028880     0.1310750994     -0.3597173477
H       -1.2264067295     0.8572697028     0.9505340893
$end
--------------------------------------------------------------

             Standard Nuclear Orientation (Angstroms)
    I     Atom           X                Y                Z
 ----------------------------------------------------------------
    1      C       1.2671859632     0.0131086937     0.2589267071
    2      C      -0.0000000133    -0.0469880262    -0.5856731923
    3      H       1.3904911263    -0.8937538769     0.8540372800
    4      H       1.2264053810     0.8572669379     0.9505364583
    5      H       2.1574025823     0.1310768207    -0.3597172072
    6      C      -1.2671859880     0.0131094836     0.2589266125
    7      H      -0.0000001996    -0.9566857740    -1.1909032996
    8      H       0.0000001658     0.7882732937    -1.2899447782
    9      H      -1.3904894609    -0.8937516888     0.8540396968
   10      H      -2.1574028880     0.1310750994    -0.3597173477
   11      H      -1.2264067295     0.8572697028     0.9505340893
 ----------------------------------------------------------------

    7    -119.1025065325      4.48E-06 Convergence criterion met
    6    -119.1454420053      3.88E-06 Convergence criterion met
 Total energy in the final basis set = -119.14544201

                    Orbital Energies (a.u.)
 --------------------------------------------------------------

 Alpha MOs
 -- Occupied --
-10.2739 -10.2650 -10.2650  -0.8812  -0.7771  -0.6777  -0.5457  -0.5245
 -0.4823  -0.4637  -0.4185  -0.4181  -0.4069

                    Cartesian Multipole Moments
 -----------------------------------------------------------------
    Charge (ESU x 10^10)
                -0.0000
    Dipole Moment (Debye)
         X       0.0000      Y      -0.0032      Z      -0.0860
       Tot       0.0861
    Quadrupole Moments (Debye-Ang)
        XX     -22.1769     XY      -0.0000     YY     -21.3560
        XZ      -0.0000     YZ      -0.0323     ZZ     -21.8415

 Total job time:  27.74s(wall), 75.24s(cpu)
        *  Thank you very much for using Q-Chem.  Have a nice day.  *
