 Q-Chem 5.3 (devel), Q-Chem, Inc., Pleasanton, CA (2020)
 Q-Chem 5.3.0 for Intel X86 EM64T Linux

User input:
--------------------------------------------------------------
$rem
   JOBTYPE  sp
   EXCHANGE   omegaB97X-D
   BASIS   6-311+G(2df,2pd)
   UNRESTRICTED   False
   max_scf_cycles   250
   geom_opt_max_cycles   1500
   basis2 6-31G*
   scf_algorithm rca_diis
   SYM_IGNORE  TRUE
   print_input   true
   geom_opt_dmax   80
   pop_mulliken false
   XC_GRID 000075000302
$end

$molecule
0 1
C       1.2661480613     0.0516838232     0.2532475458
C       -0.0000011624     0.0000001241     -0.5934623088
H       1.5233618446     -0.8433922346     0.8384807338
H       1.0879885401     0.8624712748     0.9500581127
H       2.1429122052     -0.2410828940     -0.3252804810
C       -1.2661497466     -0.0516835871     0.2532456232
H       0.0525397258     -0.8723126170     -1.2492573103
H       -0.0525369917     0.8723131087     -1.2492574374
H       -1.0879916613     -0.8624621321     0.9500674058
H       -2.1429099156     0.2410811416     -0.3252889870
H       -1.5233609599     0.8433846585     0.8384921221
$end
--------------------------------------------------------------

             Standard Nuclear Orientation (Angstroms)
    I     Atom           X                Y                Z
 ----------------------------------------------------------------
    1      C       1.2661480613     0.0516838232     0.2532475458
    2      C      -0.0000011624     0.0000001241    -0.5934623088
    3      H       1.5233618446    -0.8433922346     0.8384807338
    4      H       1.0879885401     0.8624712748     0.9500581127
    5      H       2.1429122052    -0.2410828940    -0.3252804810
    6      C      -1.2661497466    -0.0516835871     0.2532456232
    7      H       0.0525397258    -0.8723126170    -1.2492573103
    8      H      -0.0525369917     0.8723131087    -1.2492574374
    9      H      -1.0879916613    -0.8624621321     0.9500674058
   10      H      -2.1429099156     0.2410811416    -0.3252889870
   11      H      -1.5233609599     0.8433846585     0.8384921221
 ----------------------------------------------------------------

    7    -119.0448628907      7.34E-06 Convergence criterion met
    6    -119.0910873100      4.22E-06 Convergence criterion met
 Total energy in the final basis set = -119.09108731

                    Orbital Energies (a.u.)
 --------------------------------------------------------------

 Alpha MOs
 -- Occupied --
-10.2750 -10.2662 -10.2662  -0.8845  -0.7844  -0.6838  -0.5580  -0.5551
 -0.4769  -0.4433  -0.4359  -0.4069  -0.3691

                    Cartesian Multipole Moments
 -----------------------------------------------------------------
    Charge (ESU x 10^10)
                -0.0000
    Dipole Moment (Debye)
         X       0.0000      Y      -0.0000      Z      -0.0286
       Tot       0.0286
    Quadrupole Moments (Debye-Ang)
        XX     -22.0499     XY      -2.2350     YY     -21.5258
        XZ      -0.0000     YZ       0.0000     ZZ     -22.1274

 Total job time:  27.59s(wall), 74.74s(cpu)
        *  Thank you very much for using Q-Chem.  Have a nice day.  *
