 Q-Chem 5.3 (devel), Q-Chem, Inc., Pleasanton, CA (2020)
 Q-Chem 5.3.0 for Intel X86 EM64T Linux

User input:
--------------------------------------------------------------
$rem
   JOBTYPE  sp
   EXCHANGE   omegaB97X-D
   BASIS   6-311+G(2df,2pd)
   UNRESTRICTED   False
   max_scf_cycles   250
   geom_opt_max_cycles   1500
   basis2 6-31G*
   scf_algorithm rca_diis
   SYM_IGNORE  TRUE
   print_input   true
   geom_opt_dmax   80
   pop_mulliken false
   XC_GRID 000075000302
$end

$molecule
0 1
C       1.2215444291     -0.0000001025     0.1773322175
C       -0.0000006016     -0.0000001630     -0.6320788173
H       1.4729409314     -0.7794254895     0.9076002893
H       1.4729407744     0.7794253968     0.9076002053
H       2.2402454588     -0.0000001491     -0.2265957117
C       -1.2215461838     0.0000000422     0.1773328996
H       -0.0000001438     -0.8769008873     -1.2793748626
H       -0.0000008670     0.8769007675     -1.2793745419
H       -1.4729386194     -0.7794261045     0.9076014091
H       -2.2402453292     0.0000012940     -0.2265990733
H       -1.4729399093     0.7794260614     0.9076010048
$end
--------------------------------------------------------------

             Standard Nuclear Orientation (Angstroms)
    I     Atom           X                Y                Z
 ----------------------------------------------------------------
    1      C       1.2215444291    -0.0000001025     0.1773322175
    2      C      -0.0000006016    -0.0000001630    -0.6320788173
    3      H       1.4729409314    -0.7794254895     0.9076002893
    4      H       1.4729407744     0.7794253968     0.9076002053
    5      H       2.2402454588    -0.0000001491    -0.2265957117
    6      C      -1.2215461838     0.0000000422     0.1773328996
    7      H      -0.0000001438    -0.8769008873    -1.2793748626
    8      H      -0.0000008670     0.8769007675    -1.2793745419
    9      H      -1.4729386194    -0.7794261045     0.9076014091
   10      H      -2.2402453292     0.0000012940    -0.2265990733
   11      H      -1.4729399093     0.7794260614     0.9076010048
 ----------------------------------------------------------------

    7    -119.0521253480      5.06E-06 Convergence criterion met
    6    -119.0985580246      4.15E-06 Convergence criterion met
 Total energy in the final basis set = -119.09855802

                    Orbital Energies (a.u.)
 --------------------------------------------------------------

 Alpha MOs
 -- Occupied --
-10.2836 -10.2636 -10.2636  -0.8957  -0.7905  -0.7069  -0.5417  -0.5323
 -0.5117  -0.4343  -0.4168  -0.4168  -0.3914

                    Cartesian Multipole Moments
 -----------------------------------------------------------------
    Charge (ESU x 10^10)
                -0.0000
    Dipole Moment (Debye)
         X       0.0000      Y       0.0000      Z       0.0495
       Tot       0.0495
    Quadrupole Moments (Debye-Ang)
        XX     -20.6816     XY      -0.0000     YY     -22.2738
        XZ       0.0000     YZ      -0.0000     ZZ     -21.6251

 Total job time:  27.41s(wall), 73.74s(cpu)
        *  Thank you very much for using Q-Chem.  Have a nice day.  *
