 Q-Chem 5.3 (devel), Q-Chem, Inc., Pleasanton, CA (2020)
 Q-Chem 5.3.0 for Intel X86 EM64T Linux

User input:
--------------------------------------------------------------
$rem
   JOBTYPE  sp
   EXCHANGE   omegaB97X-D
   BASIS   6-311+G(2df,2pd)
   UNRESTRICTED   False
   max_scf_cycles   250
   geom_opt_max_cycles   1500
   basis2 6-31G*
   scf_algorithm rca_diis
   SYM_IGNORE  TRUE
   print_input   true
   geom_opt_dmax   80
   pop_mulliken false
   XC_GRID 000075000302
$end

$molecule
0 1
C       1.2290042319     -0.0000002765     0.3848883468
C       0.0000000719     0.0000003861     -0.6629232410
H       1.4870410995     -0.8995478612     0.9407020340
H       1.4870407106     0.8995476076     0.9407017761
H       1.9401839779     0.0000002622     -0.4519111803
C       -1.2290044339     -0.0000002462     0.3848886640
H       -0.0000003652     -0.8809970775     -1.3123967191
H       0.0000001238     0.8809973425     -1.3123974088
H       -1.4870410770     -0.8995479191     0.9407022589
H       -1.9401833836     0.0000007368     -0.4519114003
H       -1.4870410166     0.8995477112     0.9407018888
$end
--------------------------------------------------------------

             Standard Nuclear Orientation (Angstroms)
    I     Atom           X                Y                Z
 ----------------------------------------------------------------
    1      C       1.2290042319    -0.0000002765     0.3848883468
    2      C       0.0000000719     0.0000003861    -0.6629232410
    3      H       1.4870410995    -0.8995478612     0.9407020340
    4      H       1.4870407106     0.8995476076     0.9407017761
    5      H       1.9401839779     0.0000002622    -0.4519111803
    6      C      -1.2290044339    -0.0000002462     0.3848886640
    7      H      -0.0000003652    -0.8809970775    -1.3123967191
    8      H       0.0000001238     0.8809973425    -1.3123974088
    9      H      -1.4870410770    -0.8995479191     0.9407022589
   10      H      -1.9401833836     0.0000007368    -0.4519114003
   11      H      -1.4870410166     0.8995477112     0.9407018888
 ----------------------------------------------------------------

    7    -119.0437015228      4.81E-06 Convergence criterion met
    6    -119.0877797354      4.90E-06 Convergence criterion met
 Total energy in the final basis set = -119.08777974

                    Orbital Energies (a.u.)
 --------------------------------------------------------------

 Alpha MOs
 -- Occupied --
-10.2977 -10.2652 -10.2651  -0.8656  -0.7704  -0.6872  -0.5366  -0.4920
 -0.4919  -0.4693  -0.4471  -0.4309  -0.3370

                    Cartesian Multipole Moments
 -----------------------------------------------------------------
    Charge (ESU x 10^10)
                -0.0000
    Dipole Moment (Debye)
         X       0.0000      Y       0.0000      Z      -0.3701
       Tot       0.3701
    Quadrupole Moments (Debye-Ang)
        XX     -23.6668     XY      -0.0000     YY     -21.0511
        XZ       0.0000     YZ      -0.0000     ZZ     -20.9684

 Total job time:  28.49s(wall), 76.94s(cpu)
        *  Thank you very much for using Q-Chem.  Have a nice day.  *
