 Q-Chem 5.3 (devel), Q-Chem, Inc., Pleasanton, CA (2020)
 Q-Chem 5.3.0 for Intel X86 EM64T Linux

User input:
--------------------------------------------------------------
$rem
   JOBTYPE  sp
   EXCHANGE   omegaB97X-D
   BASIS   6-311+G(2df,2pd)
   UNRESTRICTED   False
   max_scf_cycles   250
   geom_opt_max_cycles   1500
   basis2 6-31G*
   scf_algorithm rca_diis
   SYM_IGNORE  TRUE
   print_input   true
   geom_opt_dmax   80
   pop_mulliken false
   XC_GRID 000075000302
$end

$molecule
0 1
C       1.2316830064     -0.0000024425     0.2928276712
C       -0.0361744648     -0.0000011748     -0.5836290811
H       1.3091900226     -0.9831322848     0.7533414316
H       1.3091997181     0.9831284490     0.7533385324
H       2.1972943610     0.0000088719     -0.2269609831
C       -1.3025203665     0.0000013293     0.2329278767
H       0.0282822105     -0.8729155504     -1.2375581270
H       0.0282822200     0.8729139470     -1.2375570080
H       -1.3217200712     -0.7447919790     1.0358379703
H       -2.1218022405     -0.0000025178     -0.4773617043
H       -1.3217144563     0.7447940182     1.0358384402
$end
--------------------------------------------------------------

             Standard Nuclear Orientation (Angstroms)
    I     Atom           X                Y                Z
 ----------------------------------------------------------------
    1      C       1.2316830064    -0.0000024425     0.2928276712
    2      C      -0.0361744648    -0.0000011748    -0.5836290811
    3      H       1.3091900226    -0.9831322848     0.7533414316
    4      H       1.3091997181     0.9831284490     0.7533385324
    5      H       2.1972943610     0.0000088719    -0.2269609831
    6      C      -1.3025203665     0.0000013293     0.2329278767
    7      H       0.0282822105    -0.8729155504    -1.2375581270
    8      H       0.0282822200     0.8729139470    -1.2375570080
    9      H      -1.3217200712    -0.7447919790     1.0358379703
   10      H      -2.1218022405    -0.0000025178    -0.4773617043
   11      H      -1.3217144563     0.7447940182     1.0358384402
 ----------------------------------------------------------------

    7    -119.0704337719      6.58E-06 Convergence criterion met
    6    -119.1151526317      4.07E-06 Convergence criterion met
 Total energy in the final basis set = -119.11515263

                    Orbital Energies (a.u.)
 --------------------------------------------------------------

 Alpha MOs
 -- Occupied --
-10.2744 -10.2658 -10.2657  -0.8828  -0.7809  -0.6816  -0.5520  -0.5357
 -0.4896  -0.4623  -0.4192  -0.3980  -0.3931

                    Cartesian Multipole Moments
 -----------------------------------------------------------------
    Charge (ESU x 10^10)
                 0.0000
    Dipole Moment (Debye)
         X       0.1184      Y       0.0000      Z      -0.0794
       Tot       0.1426
    Quadrupole Moments (Debye-Ang)
        XX     -22.1414     XY       0.0000     YY     -21.5465
        XZ      -0.1392     YZ      -0.0000     ZZ     -21.8330

 Total job time:  26.93s(wall), 73.67s(cpu)
        *  Thank you very much for using Q-Chem.  Have a nice day.  *
