 Q-Chem 5.3 (devel), Q-Chem, Inc., Pleasanton, CA (2020)
 Q-Chem 5.3.0 for Intel X86 EM64T Linux

User input:
--------------------------------------------------------------
$rem
   JOBTYPE  sp
   EXCHANGE   omegaB97X-D
   BASIS   6-311+G(2df,2pd)
   UNRESTRICTED   False
   max_scf_cycles   250
   geom_opt_max_cycles   1500
   basis2 6-31G*
   scf_algorithm rca_diis
   SYM_IGNORE  TRUE
   print_input   true
   geom_opt_dmax   80
   pop_mulliken false
   XC_GRID 000075000302
$end

$molecule
0 1
C       1.2487010339     0.2157291076     0.2632679494
C       0.0000004887     -0.0000044035     -0.5834478856
H       1.0009912674     0.3367519335     1.3210915139
H       1.7706123284     1.1181169876     -0.0571402159
H       1.9440614548     -0.6195224517     0.1740985420
C       -1.2487010539     -0.2157249438     0.2632696967
H       0.1081969218     -0.8673065523     -1.2390679155
H       -0.1081947951     0.8672870561     -1.2390819012
H       -1.7706302739     -1.1180987506     -0.0571499540
H       -1.9440472912     0.6195398616     0.1741139873
H       -1.0009901414     -0.3367671785     1.3210912020
$end
--------------------------------------------------------------

             Standard Nuclear Orientation (Angstroms)
    I     Atom           X                Y                Z
 ----------------------------------------------------------------
    1      C       1.2487010339     0.2157291076     0.2632679494
    2      C       0.0000004887    -0.0000044035    -0.5834478856
    3      H       1.0009912674     0.3367519335     1.3210915139
    4      H       1.7706123284     1.1181169876    -0.0571402159
    5      H       1.9440614548    -0.6195224517     0.1740985420
    6      C      -1.2487010539    -0.2157249438     0.2632696967
    7      H       0.1081969218    -0.8673065523    -1.2390679155
    8      H      -0.1081947951     0.8672870561    -1.2390819012
    9      H      -1.7706302739    -1.1180987506    -0.0571499540
   10      H      -1.9440472912     0.6195398616     0.1741139873
   11      H      -1.0009901414    -0.3367671785     1.3210912020
 ----------------------------------------------------------------

    7    -119.0912606671      4.21E-06 Convergence criterion met
    6    -119.1346513039      3.94E-06 Convergence criterion met
 Total energy in the final basis set = -119.13465130

                    Orbital Energies (a.u.)
 --------------------------------------------------------------

 Alpha MOs
 -- Occupied --
-10.2714 -10.2632 -10.2632  -0.8809  -0.7763  -0.6775  -0.5445  -0.5271
 -0.4763  -0.4706  -0.4222  -0.4114  -0.3979

                    Cartesian Multipole Moments
 -----------------------------------------------------------------
    Charge (ESU x 10^10)
                -0.0000
    Dipole Moment (Debye)
         X      -0.0000      Y      -0.0000      Z      -0.0957
       Tot       0.0957
    Quadrupole Moments (Debye-Ang)
        XX     -22.4252     XY      -0.1476     YY     -21.2200
        XZ      -0.0000     YZ      -0.0000     ZZ     -21.8048

 Total job time:  26.63s(wall), 72.85s(cpu)
        *  Thank you very much for using Q-Chem.  Have a nice day.  *
