 Q-Chem 5.3 (devel), Q-Chem, Inc., Pleasanton, CA (2020)
 Q-Chem 5.3.0 for Intel X86 EM64T Linux

User input:
--------------------------------------------------------------
$rem
   JOBTYPE  sp
   EXCHANGE   omegaB97X-D
   BASIS   6-311+G(2df,2pd)
   max_scf_cycles   250
   geom_opt_max_cycles   1500
   basis2 6-31G*
   scf_algorithm rca_diis
   SYM_IGNORE  TRUE
   print_input   true
   geom_opt_dmax   80
   pop_mulliken false
   XC_GRID 000075000302
$end

$molecule
0 1
C       1.2668005243     0.0319676701     0.2596911361
C       -0.0000000404     0.0000006950     -0.5870172987
H       1.3216126615     -0.9404852459     0.9625580928
H       1.2905911644     0.8213660873     0.8443418593
H       2.1642555382     0.0354833264     -0.3597311907
C       -1.2668006521     -0.0319666731     0.2596911171
H       0.0123789869     -0.8737941686     -1.2428296132
H       -0.0123790838     0.8737929396     -1.2428278543
H       -1.2905911974     -0.8213663940     0.8443425211
H       -2.1642551305     -0.0354819507     -0.3597308422
H       -1.3216128317     0.9404843800     0.9625570915
$end
--------------------------------------------------------------

             Standard Nuclear Orientation (Angstroms)
    I     Atom           X                Y                Z
 ----------------------------------------------------------------
    1      C       1.2668005243     0.0319676701     0.2596911361
    2      C      -0.0000000404     0.0000006950    -0.5870172987
    3      H       1.3216126615    -0.9404852459     0.9625580928
    4      H       1.2905911644     0.8213660873     0.8443418593
    5      H       2.1642555382     0.0354833264    -0.3597311907
    6      C      -1.2668006521    -0.0319666731     0.2596911171
    7      H       0.0123789869    -0.8737941686    -1.2428296132
    8      H      -0.0123790838     0.8737929396    -1.2428278543
    9      H      -1.2905911974    -0.8213663940     0.8443425211
   10      H      -2.1642551305    -0.0354819507    -0.3597308422
   11      H      -1.3216128317     0.9404843800     0.9625570915
 ----------------------------------------------------------------

    7    -119.0727371077      5.23E-06 Convergence criterion met
    5    -119.1168948877      9.61E-06 Convergence criterion met
 Total energy in the final basis set = -119.11689489

                    Orbital Energies (a.u.)
 --------------------------------------------------------------

 Alpha MOs
 -- Occupied --
-10.2751 -10.2642 -10.2642  -0.8832  -0.7815  -0.6816  -0.5480  -0.5251
 -0.4841  -0.4661  -0.4195  -0.4151  -0.4052

                    Cartesian Multipole Moments
 -----------------------------------------------------------------
    Charge (ESU x 10^10)
                 0.0000
    Dipole Moment (Debye)
         X      -0.0000      Y       0.0000      Z      -0.1308
       Tot       0.1308
    Quadrupole Moments (Debye-Ang)
        XX     -22.1701     XY       0.4070     YY     -21.3608
        XZ      -0.0000     YZ      -0.0000     ZZ     -21.8750

 Total job time:  24.45s(wall), 66.26s(cpu)
        *  Thank you very much for using Q-Chem.  Have a nice day.  *
