 Q-Chem 5.3 (devel), Q-Chem, Inc., Pleasanton, CA (2020)
 Q-Chem 5.3.0 for Intel X86 EM64T Linux

User input:
--------------------------------------------------------------
$rem
   JOBTYPE  sp
   EXCHANGE   omegaB97X-D
   BASIS   6-311+G(2df,2pd)
   UNRESTRICTED   False
   max_scf_cycles   250
   geom_opt_max_cycles   1500
   basis2 6-31G*
   scf_algorithm rca_diis
   SYM_IGNORE  TRUE
   print_input   true
   geom_opt_dmax   80
   pop_mulliken false
   XC_GRID 000075000302
$end

$molecule
0 1
C       1.2668411204     -0.0000024272     0.2590903203
C       0.0000013160     -0.0000006864     -0.5700434176
H       1.2741654216     -0.7954034578     1.0105477560
H       1.2741734982     0.7954008428     1.0105458000
H       2.1167193281     0.0000070692     -0.4158508831
C       -1.2668389493     0.0000016672     0.2590921167
H       -0.0000012062     -0.7113976678     -1.4087841419
H       -0.0000013192     0.7113967794     -1.4087836856
H       -1.2741717178     -0.7954116883     1.0105364777
H       -2.1167225363     -0.0000034702     -0.4158430225
H       -1.2741650160     0.7954137052     1.0105376990
$end
--------------------------------------------------------------

             Standard Nuclear Orientation (Angstroms)
    I     Atom           X                Y                Z
 ----------------------------------------------------------------
    1      C       1.2668411204    -0.0000024272     0.2590903203
    2      C       0.0000013160    -0.0000006864    -0.5700434176
    3      H       1.2741654216    -0.7954034578     1.0105477560
    4      H       1.2741734982     0.7954008428     1.0105458000
    5      H       2.1167193281     0.0000070692    -0.4158508831
    6      C      -1.2668389493     0.0000016672     0.2590921167
    7      H      -0.0000012062    -0.7113976678    -1.4087841419
    8      H      -0.0000013192     0.7113967794    -1.4087836856
    9      H      -1.2741717178    -0.7954116883     1.0105364777
   10      H      -2.1167225363    -0.0000034702    -0.4158430225
   11      H      -1.2741650160     0.7954137052     1.0105376990
 ----------------------------------------------------------------

    7    -119.0694266365      6.21E-06 Convergence criterion met
    6    -119.1144180897      4.29E-06 Convergence criterion met
 Total energy in the final basis set = -119.11441809

                    Orbital Energies (a.u.)
 --------------------------------------------------------------

 Alpha MOs
 -- Occupied --
-10.2747 -10.2676 -10.2676  -0.8837  -0.7797  -0.6973  -0.5364  -0.5136
 -0.5111  -0.4625  -0.4361  -0.4167  -0.3664

                    Cartesian Multipole Moments
 -----------------------------------------------------------------
    Charge (ESU x 10^10)
                 0.0000
    Dipole Moment (Debye)
         X      -0.0000      Y       0.0000      Z      -0.1014
       Tot       0.1014
    Quadrupole Moments (Debye-Ang)
        XX     -22.3360     XY       0.0000     YY     -23.1026
        XZ       0.0000     YZ      -0.0000     ZZ     -19.9431

 Total job time:  26.85s(wall), 73.22s(cpu)
        *  Thank you very much for using Q-Chem.  Have a nice day.  *
