 Q-Chem 5.3 (devel), Q-Chem, Inc., Pleasanton, CA (2020)
 Q-Chem 5.3.0 for Intel X86 EM64T Linux

User input:
--------------------------------------------------------------
$rem
   JOBTYPE  sp
   EXCHANGE   omegaB97X-D
   BASIS   6-311+G(2df,2pd)
   max_scf_cycles   250
   geom_opt_max_cycles   1500
   basis2 6-31G*
   scf_algorithm rca_diis
   SYM_IGNORE  TRUE
   print_input   true
   geom_opt_dmax   80
   pop_mulliken false
   XC_GRID 000075000302
$end

$molecule
0 1
C       1.2692192348     0.0000000022     0.2786450676
C       0.0000002677     -0.0000000110     -0.5373655597
H       1.3059501079     -0.8893686902     0.9313933340
H       1.3059501580     0.8893686422     0.9313932105
H       2.1320621346     -0.0000000269     -0.3129756789
C       -1.2692185338     0.0000002008     0.2786447359
H       0.0000003111     -1.1035467576     -1.3892509870
H       0.0000003272     1.1035472090     -1.3892513992
H       -1.3059498583     -0.8893719706     0.9313956231
H       -2.1320644562     0.0000008345     -0.3129780283
H       -1.3059497537     0.8893712337     0.9313947008
$end
--------------------------------------------------------------

             Standard Nuclear Orientation (Angstroms)
    I     Atom           X                Y                Z
 ----------------------------------------------------------------
    1      C       1.2692192348     0.0000000022     0.2786450676
    2      C       0.0000002677    -0.0000000110    -0.5373655597
    3      H       1.3059501079    -0.8893686902     0.9313933340
    4      H       1.3059501580     0.8893686422     0.9313932105
    5      H       2.1320621346    -0.0000000269    -0.3129756789
    6      C      -1.2692185338     0.0000002008     0.2786447359
    7      H       0.0000003111    -1.1035467576    -1.3892509870
    8      H       0.0000003272     1.1035472090    -1.3892513992
    9      H      -1.3059498583    -0.8893719706     0.9313956231
   10      H      -2.1320644562     0.0000008345    -0.3129780283
   11      H      -1.3059497537     0.8893712337     0.9313947008
 ----------------------------------------------------------------

    7    -119.0368756100      5.43E-06 Convergence criterion met
    6    -119.0792058882      3.96E-06 Convergence criterion met
 Total energy in the final basis set = -119.07920589

                    Orbital Energies (a.u.)
 --------------------------------------------------------------

 Alpha MOs
 -- Occupied --
-10.3307 -10.2699 -10.2699  -0.8804  -0.7884  -0.6475  -0.5334  -0.5306
 -0.4890  -0.4667  -0.4372  -0.4021  -0.3726

                    Cartesian Multipole Moments
 -----------------------------------------------------------------
    Charge (ESU x 10^10)
                 0.0000
    Dipole Moment (Debye)
         X       0.0000      Y       0.0000      Z       0.4313
       Tot       0.4313
    Quadrupole Moments (Debye-Ang)
        XX     -21.7178     XY      -0.0000     YY     -21.9109
        XZ       0.0000     YZ       0.0000     ZZ     -22.8770

 Total job time:  27.66s(wall), 74.57s(cpu)
        *  Thank you very much for using Q-Chem.  Have a nice day.  *
