 Q-Chem 5.3 (devel), Q-Chem, Inc., Pleasanton, CA (2020)
 Q-Chem 5.3.0 for Intel X86 EM64T Linux

User input:
--------------------------------------------------------------
$rem
   JOBTYPE  sp
   EXCHANGE   omegaB97X-D
   BASIS   6-311+G(2df,2pd)
   UNRESTRICTED   False
   max_scf_cycles   250
   geom_opt_max_cycles   1500
   basis2 6-31G*
   scf_algorithm rca_diis
   SYM_IGNORE  TRUE
   print_input   true
   geom_opt_dmax   80
   pop_mulliken false
   XC_GRID 000075000302
$end

$molecule
0 1
C       1.2522124194     0.0000000182     0.2494413863
C       -0.0125289479     0.0000000814     -0.5872731157
H       1.3002062911     -0.9529317783     0.9499158169
H       1.3002063617     0.9529318648     0.9499158228
H       2.2129986438     -0.0000000147     -0.4132024826
C       -1.2821314637     0.0000001787     0.2694682326
H       -0.0160647699     -0.8738739735     -1.2430868032
H       -0.0160647765     0.8738739556     -1.2430867089
H       -1.3113232362     -0.8081087955     0.8578957258
H       -2.1161874186     0.0000008063     -0.3068380345
H       -1.3113231638     0.8081083230     0.8578951794
$end
--------------------------------------------------------------

             Standard Nuclear Orientation (Angstroms)
    I     Atom           X                Y                Z
 ----------------------------------------------------------------
    1      C       1.2522124194     0.0000000182     0.2494413863
    2      C      -0.0125289479     0.0000000814    -0.5872731157
    3      H       1.3002062911    -0.9529317783     0.9499158169
    4      H       1.3002063617     0.9529318648     0.9499158228
    5      H       2.2129986438    -0.0000000147    -0.4132024826
    6      C      -1.2821314637     0.0000001787     0.2694682326
    7      H      -0.0160647699    -0.8738739735    -1.2430868032
    8      H      -0.0160647765     0.8738739556    -1.2430867089
    9      H      -1.3113232362    -0.8081087955     0.8578957258
   10      H      -2.1161874186     0.0000008063    -0.3068380345
   11      H      -1.3113231638     0.8081083230     0.8578951794
 ----------------------------------------------------------------

    7    -119.0738893886      5.07E-06 Convergence criterion met
    6    -119.1178902307      4.23E-06 Convergence criterion met
 Total energy in the final basis set = -119.11789023

                    Orbital Energies (a.u.)
 --------------------------------------------------------------

 Alpha MOs
 -- Occupied --
-10.2916 -10.2746 -10.2365  -0.8839  -0.7810  -0.6752  -0.5484  -0.5269
 -0.4824  -0.4656  -0.4254  -0.4103  -0.4051

                    Cartesian Multipole Moments
 -----------------------------------------------------------------
    Charge (ESU x 10^10)
                 0.0000
    Dipole Moment (Debye)
         X      -0.1951      Y       0.0000      Z      -0.0995
       Tot       0.2191
    Quadrupole Moments (Debye-Ang)
        XX     -22.1569     XY      -0.0000     YY     -21.3569
        XZ      -0.1967     YZ      -0.0000     ZZ     -21.8236

 Total job time:  27.27s(wall), 74.01s(cpu)
        *  Thank you very much for using Q-Chem.  Have a nice day.  *
