 Q-Chem 5.3 (devel), Q-Chem, Inc., Pleasanton, CA (2020)
 Q-Chem 5.3.0 for Intel X86 EM64T Linux

User input:
--------------------------------------------------------------
$rem
   JOBTYPE  sp
   EXCHANGE   omegaB97X-D
   BASIS   6-311+G(2df,2pd)
   UNRESTRICTED   False
   max_scf_cycles   250
   geom_opt_max_cycles   1500
   basis2 6-31G*
   scf_algorithm rca_diis
   SYM_IGNORE  TRUE
   print_input   true
   geom_opt_dmax   80
   pop_mulliken false
   XC_GRID 000075000302
$end

$molecule
0 1
C       1.2931872216     0.0000000412     0.2583903754
C       0.0000000005     -0.0000000012     -0.6204718576
H       1.3042379445     -0.8777095034     0.9082807286
H       1.3042380851     0.8777094779     0.9082808671
H       2.2188013343     -0.0000000350     -0.3185393348
C       -1.2931872533     -0.0000000730     0.2583903573
H       0.0000001964     -0.8743010388     -1.2756542557
H       -0.0000001402     0.8743010694     -1.2756542114
H       -1.3042380836     -0.8777094357     0.9082809274
H       -2.2188014086     0.0000006812     -0.3185392818
H       -1.3042379574     0.8777094832     0.9082807045
$end
--------------------------------------------------------------

             Standard Nuclear Orientation (Angstroms)
    I     Atom           X                Y                Z
 ----------------------------------------------------------------
    1      C       1.2931872216     0.0000000412     0.2583903754
    2      C       0.0000000005    -0.0000000012    -0.6204718576
    3      H       1.3042379445    -0.8777095034     0.9082807286
    4      H       1.3042380851     0.8777094779     0.9082808671
    5      H       2.2188013343    -0.0000000350    -0.3185393348
    6      C      -1.2931872533    -0.0000000730     0.2583903573
    7      H       0.0000001964    -0.8743010388    -1.2756542557
    8      H      -0.0000001402     0.8743010694    -1.2756542114
    9      H      -1.3042380836    -0.8777094357     0.9082809274
   10      H      -2.2188014086     0.0000006812    -0.3185392818
   11      H      -1.3042379574     0.8777094832     0.9082807045
 ----------------------------------------------------------------

    7    -119.1015796590      4.69E-06 Convergence criterion met
    5    -119.1441728910      9.99E-06 Convergence criterion met
 Total energy in the final basis set = -119.14417289

                    Orbital Energies (a.u.)
 --------------------------------------------------------------

 Alpha MOs
 -- Occupied --
-10.2809 -10.2685 -10.2685  -0.8710  -0.7745  -0.6813  -0.5400  -0.5205
 -0.4766  -0.4627  -0.4198  -0.4166  -0.4114

                    Cartesian Multipole Moments
 -----------------------------------------------------------------
    Charge (ESU x 10^10)
                 0.0000
    Dipole Moment (Debye)
         X       0.0000      Y       0.0000      Z      -0.0560
       Tot       0.0560
    Quadrupole Moments (Debye-Ang)
        XX     -21.9606     XY      -0.0000     YY     -21.4523
        XZ      -0.0000     YZ      -0.0000     ZZ     -21.8776

 Total job time:  26.53s(wall), 70.52s(cpu)
        *  Thank you very much for using Q-Chem.  Have a nice day.  *
