 Q-Chem 5.3 (devel), Q-Chem, Inc., Pleasanton, CA (2020)
 Q-Chem 5.3.0 for Intel X86 EM64T Linux

User input:
--------------------------------------------------------------
$rem
   JOBTYPE  sp
   EXCHANGE   omegaB97X-D
   BASIS   6-311+G(2df,2pd)
   max_scf_cycles   250
   geom_opt_max_cycles   1500
   basis2 6-31G*
   scf_algorithm rca_diis
   SYM_IGNORE  TRUE
   print_input   true
   geom_opt_dmax   80
   pop_mulliken false
   XC_GRID 000075000302
$end

$molecule
0 1
C       1.2727082587     0.0000000199     0.2736436819
C       0.0000005510     0.0000000945     -0.5785211419
H       1.3038152704     -0.8083211008     0.8619183240
H       1.3038153371     0.8083212005     0.8619183419
H       2.1039176376     -0.0000000116     -0.3064567321
C       -1.2727069445     0.0000001940     0.2736427526
H       0.0000006824     -0.8708383306     -1.2312418752
H       0.0000006813     0.8708382851     -1.2312417443
H       -1.3038147823     -0.8083280740     0.8619228190
H       -2.1039220508     0.0000008235     -0.3064616349
H       -1.3038147017     0.8083275656     0.8619222279
$end
--------------------------------------------------------------

             Standard Nuclear Orientation (Angstroms)
    I     Atom           X                Y                Z
 ----------------------------------------------------------------
    1      C       1.2727082587     0.0000000199     0.2736436819
    2      C       0.0000005510     0.0000000945    -0.5785211419
    3      H       1.3038152704    -0.8083211008     0.8619183240
    4      H       1.3038153371     0.8083212005     0.8619183419
    5      H       2.1039176376    -0.0000000116    -0.3064567321
    6      C      -1.2727069445     0.0000001940     0.2736427526
    7      H       0.0000006824    -0.8708383306    -1.2312418752
    8      H       0.0000006813     0.8708382851    -1.2312417443
    9      H      -1.3038147823    -0.8083280740     0.8619228190
   10      H      -2.1039220508     0.0000008235    -0.3064616349
   11      H      -1.3038147017     0.8083275656     0.8619222279
 ----------------------------------------------------------------

    7    -119.0660557893      5.88E-06 Convergence criterion met
    6    -119.1133106966      4.08E-06 Convergence criterion met
 Total energy in the final basis set = -119.11331070

                    Orbital Energies (a.u.)
 --------------------------------------------------------------

 Alpha MOs
 -- Occupied --
-10.2691 -10.2340 -10.2340  -0.8869  -0.7994  -0.6907  -0.5529  -0.5327
 -0.4945  -0.4826  -0.4201  -0.4198  -0.4136

                    Cartesian Multipole Moments
 -----------------------------------------------------------------
    Charge (ESU x 10^10)
                -0.0000
    Dipole Moment (Debye)
         X       0.0000      Y       0.0000      Z       0.0439
       Tot       0.0439
    Quadrupole Moments (Debye-Ang)
        XX     -21.4808     XY      -0.0000     YY     -20.9633
        XZ       0.0000     YZ      -0.0000     ZZ     -21.4121

 Total job time:  26.96s(wall), 73.64s(cpu)
        *  Thank you very much for using Q-Chem.  Have a nice day.  *
