 Q-Chem 5.3 (devel), Q-Chem, Inc., Pleasanton, CA (2020)
 Q-Chem 5.3.0 for Intel X86 EM64T Linux

User input:
--------------------------------------------------------------
$rem
   JOBTYPE  sp
   EXCHANGE   omegaB97X-D
   BASIS   6-311+G(2df,2pd)
   UNRESTRICTED   False
   max_scf_cycles   250
   geom_opt_max_cycles   1500
   basis2 6-31G*
   scf_algorithm rca_diis
   SYM_IGNORE  TRUE
   print_input   true
   geom_opt_dmax   80
   pop_mulliken false
   XC_GRID 000075000302
$end

$molecule
0 1
C       1.2670385226     0.0393369628     0.2543402493
C       -0.0000000764     -0.1399071580     -0.5734314302
H       1.5721299255     -0.8872202427     0.7435661392
H       1.0946810726     0.7828446682     1.0359472408
H       2.1007728574     0.3861448885     -0.3569974264
C       -1.2670385108     0.0393392170     0.2543398879
H       -0.0000007596     -1.1124936986     -1.0715503672
H       0.0000006155     0.6101786221     -1.3676843927
H       -1.5721246877     -0.8872156410     0.7435736594
H       -2.1007750805     0.3861389213     -0.3569993164
H       -1.0946839390     0.7828541263     1.0359407752
$end
--------------------------------------------------------------

             Standard Nuclear Orientation (Angstroms)
    I     Atom           X                Y                Z
 ----------------------------------------------------------------
    1      C       1.2670385226     0.0393369628     0.2543402493
    2      C      -0.0000000764    -0.1399071580    -0.5734314302
    3      H       1.5721299255    -0.8872202427     0.7435661392
    4      H       1.0946810726     0.7828446682     1.0359472408
    5      H       2.1007728574     0.3861448885    -0.3569974264
    6      C      -1.2670385108     0.0393392170     0.2543398879
    7      H      -0.0000007596    -1.1124936986    -1.0715503672
    8      H       0.0000006155     0.6101786221    -1.3676843927
    9      H      -1.5721246877    -0.8872156410     0.7435736594
   10      H      -2.1007750805     0.3861389213    -0.3569993164
   11      H      -1.0946839390     0.7828541263     1.0359407752
 ----------------------------------------------------------------

    7    -119.0981739715      4.35E-06 Convergence criterion met
    6    -119.1413145182      3.94E-06 Convergence criterion met
 Total energy in the final basis set = -119.14131452

                    Orbital Energies (a.u.)
 --------------------------------------------------------------

 Alpha MOs
 -- Occupied --
-10.2731 -10.2644 -10.2644  -0.8814  -0.7765  -0.6780  -0.5453  -0.5265
 -0.4800  -0.4644  -0.4198  -0.4171  -0.4033

                    Cartesian Multipole Moments
 -----------------------------------------------------------------
    Charge (ESU x 10^10)
                -0.0000
    Dipole Moment (Debye)
         X       0.0000      Y      -0.0082      Z      -0.0880
       Tot       0.0884
    Quadrupole Moments (Debye-Ang)
        XX     -22.2427     XY      -0.0000     YY     -21.3173
        XZ      -0.0000     YZ      -0.1091     ZZ     -21.8425

 Total job time:  28.19s(wall), 75.96s(cpu)
        *  Thank you very much for using Q-Chem.  Have a nice day.  *
