 Q-Chem 5.3 (devel), Q-Chem, Inc., Pleasanton, CA (2020)
 Q-Chem 5.3.0 for Intel X86 EM64T Linux

User input:
--------------------------------------------------------------
$rem
   JOBTYPE  sp
   EXCHANGE   omegaB97X-D
   BASIS   6-311+G(2df,2pd)
   UNRESTRICTED   False
   max_scf_cycles   250
   geom_opt_max_cycles   1500
   basis2 6-31G*
   scf_algorithm rca_diis
   SYM_IGNORE  TRUE
   print_input   true
   geom_opt_dmax   80
   pop_mulliken false
   XC_GRID 000075000302
$end

$molecule
0 1
C       1.2568516236     0.1616280671     0.2618221351
C       0.0000002842     -0.0000032553     -0.5848900306
H       1.0488687764     -0.0091858537     1.3209997735
H       1.6540057353     1.1729415094     0.1639714244
H       2.0392507602     -0.5340155683     -0.0432253515
C       -1.2568516564     -0.1616248553     0.2618230336
H       0.0808738035     -0.8702128039     -1.2405971451
H       -0.0808725175     0.8701982334     -1.2406076719
H       -1.6540199920     -1.1729319544     0.1639619585
H       -2.0392423904     0.5340321255     -0.0432155209
H       -1.0488644875     0.0091750214     1.3210024138
$end
--------------------------------------------------------------

             Standard Nuclear Orientation (Angstroms)
    I     Atom           X                Y                Z
 ----------------------------------------------------------------
    1      C       1.2568516236     0.1616280671     0.2618221351
    2      C       0.0000002842    -0.0000032553    -0.5848900306
    3      H       1.0488687764    -0.0091858537     1.3209997735
    4      H       1.6540057353     1.1729415094     0.1639714244
    5      H       2.0392507602    -0.5340155683    -0.0432253515
    6      C      -1.2568516564    -0.1616248553     0.2618230336
    7      H       0.0808738035    -0.8702128039    -1.2405971451
    8      H      -0.0808725175     0.8701982334    -1.2406076719
    9      H      -1.6540199920    -1.1729319544     0.1639619585
   10      H      -2.0392423904     0.5340321255    -0.0432155209
   11      H      -1.0488644875     0.0091750214     1.3210024138
 ----------------------------------------------------------------

    7    -119.0916142830      4.19E-06 Convergence criterion met
    6    -119.1349915921      3.96E-06 Convergence criterion met
 Total energy in the final basis set = -119.13499159

                    Orbital Energies (a.u.)
 --------------------------------------------------------------

 Alpha MOs
 -- Occupied --
-10.2715 -10.2633 -10.2633  -0.8810  -0.7763  -0.6776  -0.5444  -0.5276
 -0.4757  -0.4705  -0.4220  -0.4122  -0.3980

                    Cartesian Multipole Moments
 -----------------------------------------------------------------
    Charge (ESU x 10^10)
                 0.0000
    Dipole Moment (Debye)
         X      -0.0000      Y      -0.0000      Z      -0.0946
       Tot       0.0946
    Quadrupole Moments (Debye-Ang)
        XX     -22.4018     XY      -0.1103     YY     -21.2156
        XZ       0.0000     YZ      -0.0000     ZZ     -21.8270

 Total job time:  28.04s(wall), 75.78s(cpu)
        *  Thank you very much for using Q-Chem.  Have a nice day.  *
