 Q-Chem 5.3 (devel), Q-Chem, Inc., Pleasanton, CA (2020)
 Q-Chem 5.3.0 for Intel X86 EM64T Linux

User input:
--------------------------------------------------------------
$rem
   JOBTYPE  sp
   EXCHANGE   omegaB97X-D
   BASIS   6-311+G(2df,2pd)
   max_scf_cycles   250
   geom_opt_max_cycles   1500
   basis2 6-31G*
   scf_algorithm rca_diis
   SYM_IGNORE  TRUE
   print_input   true
   geom_opt_dmax   80
   pop_mulliken false
   XC_GRID 000075000302
$end

$molecule
0 1
C       1.2645165343     -0.0805458507     0.2585896174
C       -0.0000000141     0.0000001142     -0.5883053866
H       1.3255858931     -0.9130995426     0.9616322246
H       1.2827561043     0.8452394658     0.8380686239
H       2.1608560715     -0.0323092666     -0.3605800295
C       -1.2645166148     0.0805457240     0.2585895828
H       0.2526446720     -0.8451335933     -1.2330350859
H       -0.2526449643     0.8451337267     -1.2330351253
H       -1.2827559041     -0.8452394826     0.8380687545
H       -2.1608560279     0.0323098429     -0.3605802682
H       -1.3255858105     0.9130995281     0.9616321113
$end
--------------------------------------------------------------

             Standard Nuclear Orientation (Angstroms)
    I     Atom           X                Y                Z
 ----------------------------------------------------------------
    1      C       1.2645165343    -0.0805458507     0.2585896174
    2      C      -0.0000000141     0.0000001142    -0.5883053866
    3      H       1.3255858931    -0.9130995426     0.9616322246
    4      H       1.2827561043     0.8452394658     0.8380686239
    5      H       2.1608560715    -0.0323092666    -0.3605800295
    6      C      -1.2645166148     0.0805457240     0.2585895828
    7      H       0.2526446720    -0.8451335933    -1.2330350859
    8      H      -0.2526449643     0.8451337267    -1.2330351253
    9      H      -1.2827559041    -0.8452394826     0.8380687545
   10      H      -2.1608560279     0.0323098429    -0.3605802682
   11      H      -1.3255858105     0.9130995281     0.9616321113
 ----------------------------------------------------------------

    7    -119.0753013080      5.56E-06 Convergence criterion met
    6    -119.1192120497      4.18E-06 Convergence criterion met
 Total energy in the final basis set = -119.11921205

                    Orbital Energies (a.u.)
 --------------------------------------------------------------

 Alpha MOs
 -- Occupied --
-10.2738 -10.2667 -10.2667  -0.8844  -0.7806  -0.6775  -0.5489  -0.5259
 -0.4955  -0.4686  -0.4307  -0.4099  -0.3752

                    Cartesian Multipole Moments
 -----------------------------------------------------------------
    Charge (ESU x 10^10)
                -0.0000
    Dipole Moment (Debye)
         X       0.0000      Y       0.0000      Z      -0.0440
       Tot       0.0440
    Quadrupole Moments (Debye-Ang)
        XX     -22.0278     XY      -0.7193     YY     -21.5176
        XZ       0.0000     YZ      -0.0000     ZZ     -21.9805

 Total job time:  26.71s(wall), 72.97s(cpu)
        *  Thank you very much for using Q-Chem.  Have a nice day.  *
