 Q-Chem 5.3 (devel), Q-Chem, Inc., Pleasanton, CA (2020)
 Q-Chem 5.3.0 for Intel X86 EM64T Linux

User input:
--------------------------------------------------------------
$rem
   JOBTYPE  sp
   EXCHANGE   omegaB97X-D
   BASIS   6-311+G(2df,2pd)
   UNRESTRICTED   False
   max_scf_cycles   250
   geom_opt_max_cycles   1500
   basis2 6-31G*
   scf_algorithm rca_diis
   SYM_IGNORE  TRUE
   print_input   true
   geom_opt_dmax   80
   pop_mulliken false
   XC_GRID 000075000302
$end

$molecule
0 1
C       1.5283237950     -0.0000007672     0.2674848089
C       -0.0000002015     0.0000032022     -0.0567854495
H       1.9519116075     -0.8852518771     0.7417516122
H       1.9519188510     0.8852466144     0.7417520647
H       1.8744817163     -0.0000044553     -0.7718828585
C       -1.5283242277     0.0000013154     0.2674842641
H       0.0000012355     -0.8238639746     -0.7801929747
H       -0.0000003918     0.8238752313     -0.7801874772
H       -1.9519112980     -0.8852455698     0.7417595725
H       -1.8744827953     -0.0000120720     -0.7718828145
H       -1.9519183514     0.8852530188     0.7417442708
$end
--------------------------------------------------------------

             Standard Nuclear Orientation (Angstroms)
    I     Atom           X                Y                Z
 ----------------------------------------------------------------
    1      C       1.5283237950    -0.0000007672     0.2674848089
    2      C      -0.0000002015     0.0000032022    -0.0567854495
    3      H       1.9519116075    -0.8852518771     0.7417516122
    4      H       1.9519188510     0.8852466144     0.7417520647
    5      H       1.8744817163    -0.0000044553    -0.7718828585
    6      C      -1.5283242277     0.0000013154     0.2674842641
    7      H       0.0000012355    -0.8238639746    -0.7801929747
    8      H      -0.0000003918     0.8238752313    -0.7801874772
    9      H      -1.9519112980    -0.8852455698     0.7417595725
   10      H      -1.8744827953    -0.0000120720    -0.7718828145
   11      H      -1.9519183514     0.8852530188     0.7417442708
 ----------------------------------------------------------------

    7    -119.0415318910      4.60E-06 Convergence criterion met
    6    -119.0854863528      4.20E-06 Convergence criterion met
 Total energy in the final basis set = -119.08548635

                    Orbital Energies (a.u.)
 --------------------------------------------------------------

 Alpha MOs
 -- Occupied --
-10.2811 -10.2777 -10.2777  -0.8763  -0.7954  -0.6720  -0.5351  -0.5051
 -0.5037  -0.4781  -0.4287  -0.3948  -0.3795

                    Cartesian Multipole Moments
 -----------------------------------------------------------------
    Charge (ESU x 10^10)
                -0.0000
    Dipole Moment (Debye)
         X      -0.0000      Y      -0.0000      Z      -0.3883
       Tot       0.3883
    Quadrupole Moments (Debye-Ang)
        XX     -21.6151     XY      -0.0000     YY     -21.5925
        XZ       0.0000     YZ       0.0000     ZZ     -21.9186

 Total job time:  26.58s(wall), 72.13s(cpu)
        *  Thank you very much for using Q-Chem.  Have a nice day.  *
