 Q-Chem 5.3 (devel), Q-Chem, Inc., Pleasanton, CA (2020)
 Q-Chem 5.3.0 for Intel X86 EM64T Linux

User input:
--------------------------------------------------------------
$rem
   JOBTYPE  sp
   EXCHANGE   omegaB97X-D
   BASIS   6-311+G(2df,2pd)
   max_scf_cycles   250
   geom_opt_max_cycles   1500
   basis2 6-31G*
   scf_algorithm rca_diis
   SYM_IGNORE  TRUE
   print_input   true
   geom_opt_dmax   80
   pop_mulliken false
   XC_GRID 000075000302
$end

$molecule
0 1
C       1.2719210025     0.0000014445     0.1836599380
C       0.0000000158     0.0000029200     -0.7043405348
H       1.2570343483     -0.7509938785     0.9811927245
H       1.2570315287     0.7509947055     0.9811944034
H       2.0938459763     -0.0000057854     -0.5254010506
C       -1.2719211098     0.0000019964     0.1836602482
H       -0.0000003302     -1.0128475585     -1.0979508682
H       -0.0000002719     1.0128521800     -1.0979540728
H       -1.2570350023     -0.7509950823     0.9811913951
H       -2.0938462716     -0.0000067955     -0.5254005690
H       -1.2570299463     0.7509965199     0.9811934050
$end
--------------------------------------------------------------

             Standard Nuclear Orientation (Angstroms)
    I     Atom           X                Y                Z
 ----------------------------------------------------------------
    1      C       1.2719210025     0.0000014445     0.1836599380
    2      C       0.0000000158     0.0000029200    -0.7043405348
    3      H       1.2570343483    -0.7509938785     0.9811927245
    4      H       1.2570315287     0.7509947055     0.9811944034
    5      H       2.0938459763    -0.0000057854    -0.5254010506
    6      C      -1.2719211098     0.0000019964     0.1836602482
    7      H      -0.0000003302    -1.0128475585    -1.0979508682
    8      H      -0.0000002719     1.0128521800    -1.0979540728
    9      H      -1.2570350023    -0.7509950823     0.9811913951
   10      H      -2.0938462716    -0.0000067955    -0.5254005690
   11      H      -1.2570299463     0.7509965199     0.9811934050
 ----------------------------------------------------------------

    7    -119.0459807510      6.88E-06 Convergence criterion met
    5    -119.0915741348      8.05E-06 Convergence criterion met
 Total energy in the final basis set = -119.09157413

                    Orbital Energies (a.u.)
 --------------------------------------------------------------

 Alpha MOs
 -- Occupied --
-10.2790 -10.2650 -10.2650  -0.8827  -0.7766  -0.6798  -0.5599  -0.5280
 -0.5267  -0.4215  -0.4079  -0.4003  -0.3998

                    Cartesian Multipole Moments
 -----------------------------------------------------------------
    Charge (ESU x 10^10)
                 0.0000
    Dipole Moment (Debye)
         X      -0.0000      Y      -0.0000      Z       0.1834
       Tot       0.1834
    Quadrupole Moments (Debye-Ang)
        XX     -23.2258     XY       0.0000     YY     -22.0444
        XZ       0.0000     YZ       0.0000     ZZ     -21.2100

 Total job time:  24.43s(wall), 66.24s(cpu)
        *  Thank you very much for using Q-Chem.  Have a nice day.  *
