 Q-Chem 5.3 (devel), Q-Chem, Inc., Pleasanton, CA (2020)
 Q-Chem 5.3.0 for Intel X86 EM64T Linux

User input:
--------------------------------------------------------------
$rem
   JOBTYPE  sp
   EXCHANGE   omegaB97X-D
   BASIS   6-311+G(2df,2pd)
   max_scf_cycles   250
   geom_opt_max_cycles   1500
   basis2 6-31G*
   scf_algorithm rca_diis
   SYM_IGNORE  TRUE
   print_input   true
   geom_opt_dmax   80
   pop_mulliken false
   XC_GRID 000075000302
$end

$molecule
0 1
C       1.3111132876     0.0000001948     0.1928817432
C       0.0272506097     0.0000000335     -0.5881965137
H       1.2439732258     -0.8635261396     0.8590769196
H       1.2439736661     0.8635262379     0.8590773281
H       2.2856946547     -0.0000000488     -0.2922199210
C       -1.2208856448     -0.0000000996     0.3229096150
H       -0.0745206996     -0.8720586315     -1.2385140945
H       -0.0745213297     0.8720585468     -1.2385142353
H       -1.3584800263     -0.8888979461     0.9403874785
H       -2.0251184356     0.0000006294     -0.4162307720
H       -1.3584793683     0.8888978890     0.9403874710
$end
--------------------------------------------------------------

             Standard Nuclear Orientation (Angstroms)
    I     Atom           X                Y                Z
 ----------------------------------------------------------------
    1      C       1.3111132876     0.0000001948     0.1928817432
    2      C       0.0272506097     0.0000000335    -0.5881965137
    3      H       1.2439732258    -0.8635261396     0.8590769196
    4      H       1.2439736661     0.8635262379     0.8590773281
    5      H       2.2856946547    -0.0000000488    -0.2922199210
    6      C      -1.2208856448    -0.0000000996     0.3229096150
    7      H      -0.0745206996    -0.8720586315    -1.2385140945
    8      H      -0.0745213297     0.8720585468    -1.2385142353
    9      H      -1.3584800263    -0.8888979461     0.9403874785
   10      H      -2.0251184356     0.0000006294    -0.4162307720
   11      H      -1.3584793683     0.8888978890     0.9403874710
 ----------------------------------------------------------------

    7    -119.0942650807      4.58E-06 Convergence criterion met
    6    -119.1374833318      4.01E-06 Convergence criterion met
 Total energy in the final basis set = -119.13748333

                    Orbital Energies (a.u.)
 --------------------------------------------------------------

 Alpha MOs
 -- Occupied --
-10.2758 -10.2670 -10.2634  -0.8833  -0.7783  -0.6780  -0.5462  -0.5275
 -0.4839  -0.4631  -0.4180  -0.4140  -0.4060

                    Cartesian Multipole Moments
 -----------------------------------------------------------------
    Charge (ESU x 10^10)
                 0.0000
    Dipole Moment (Debye)
         X      -0.0774      Y      -0.0000      Z      -0.0839
       Tot       0.1141
    Quadrupole Moments (Debye-Ang)
        XX     -22.1252     XY      -0.0000     YY     -21.4150
        XZ      -0.0627     YZ      -0.0000     ZZ     -21.8819

 Total job time:  27.62s(wall), 74.34s(cpu)
        *  Thank you very much for using Q-Chem.  Have a nice day.  *
