 Q-Chem 5.3 (devel), Q-Chem, Inc., Pleasanton, CA (2020)
 Q-Chem 5.3.0 for Intel X86 EM64T Linux

User input:
--------------------------------------------------------------
$rem
   JOBTYPE  sp
   EXCHANGE   omegaB97X-D
   BASIS   6-311+G(2df,2pd)
   UNRESTRICTED   False
   max_scf_cycles   250
   geom_opt_max_cycles   1500
   basis2 6-31G*
   scf_algorithm rca_diis
   SYM_IGNORE  TRUE
   print_input   true
   geom_opt_dmax   80
   pop_mulliken false
   XC_GRID 000075000302
$end

$molecule
0 1
C       1.2626211738     -0.1076504782     0.2605995937
C       0.0000000787     0.0000023050     -0.5861111698
H       1.5343851844     -1.1534979279     0.4126292290
H       1.1177287834     0.3411892424     1.2460614196
H       2.1085031331     0.3908712329     -0.2138286508
C       -1.2626210602     0.1076485117     0.2606004078
H       -0.0537712521     -0.8722487687     -1.2418879544
H       0.0537712298     0.8722586220     -1.2418811671
H       -1.1177237087     -0.3411825722     1.2460652426
H       -2.1084985620     -0.3908837230     -0.2138247474
H       -1.5343950608     1.1534942219     0.4126228157
$end
--------------------------------------------------------------

             Standard Nuclear Orientation (Angstroms)
    I     Atom           X                Y                Z
 ----------------------------------------------------------------
    1      C       1.2626211738    -0.1076504782     0.2605995937
    2      C       0.0000000787     0.0000023050    -0.5861111698
    3      H       1.5343851844    -1.1534979279     0.4126292290
    4      H       1.1177287834     0.3411892424     1.2460614196
    5      H       2.1085031331     0.3908712329    -0.2138286508
    6      C      -1.2626210602     0.1076485117     0.2606004078
    7      H      -0.0537712521    -0.8722487687    -1.2418879544
    8      H       0.0537712298     0.8722586220    -1.2418811671
    9      H      -1.1177237087    -0.3411825722     1.2460652426
   10      H      -2.1084985620    -0.3908837230    -0.2138247474
   11      H      -1.5343950608     1.1534942219     0.4126228157
 ----------------------------------------------------------------

    7    -119.0964370729      4.37E-06 Convergence criterion met
    6    -119.1395790081      3.95E-06 Convergence criterion met
 Total energy in the final basis set = -119.13957901

                    Orbital Energies (a.u.)
 --------------------------------------------------------------

 Alpha MOs
 -- Occupied --
-10.2723 -10.2642 -10.2642  -0.8810  -0.7767  -0.6775  -0.5446  -0.5259
 -0.4789  -0.4689  -0.4196  -0.4154  -0.4009

                    Cartesian Multipole Moments
 -----------------------------------------------------------------
    Charge (ESU x 10^10)
                 0.0000
    Dipole Moment (Debye)
         X      -0.0000      Y       0.0000      Z      -0.0850
       Tot       0.0850
    Quadrupole Moments (Debye-Ang)
        XX     -22.2858     XY       0.0700     YY     -21.2669
        XZ       0.0000     YZ       0.0000     ZZ     -21.8548

 Total job time:  27.55s(wall), 74.57s(cpu)
        *  Thank you very much for using Q-Chem.  Have a nice day.  *
