 Q-Chem 5.3 (devel), Q-Chem, Inc., Pleasanton, CA (2020)
 Q-Chem 5.3.0 for Intel X86 EM64T Linux

User input:
--------------------------------------------------------------
$rem
   JOBTYPE  sp
   EXCHANGE   omegaB97X-D
   BASIS   6-311+G(2df,2pd)
   UNRESTRICTED   False
   max_scf_cycles   250
   geom_opt_max_cycles   1500
   basis2 6-31G*
   scf_algorithm rca_diis
   SYM_IGNORE  TRUE
   print_input   true
   geom_opt_dmax   80
   pop_mulliken false
   XC_GRID 000075000302
$end

$molecule
0 1
C       1.2486985409     -0.2157286565     0.2632680905
C       0.0000003699     0.0000046590     -0.5834501651
H       1.7706074680     -1.1181182045     -0.0571391955
H       1.0009837495     -0.3367522414     1.3210903798
H       1.9440610818     0.6195213354     0.1741014363
C       -1.2486983432     0.2157251701     0.2632706398
H       -0.1081954647     -0.8672866891     -1.2390839445
H       0.1081963053     0.8673063801     -1.2390705503
H       -1.0009827909     0.3367686399     1.3210901268
H       -1.9440449454     -0.6195393440     0.1741154993
H       -1.7706260317     1.1180996171     -0.0571472982
$end
--------------------------------------------------------------

             Standard Nuclear Orientation (Angstroms)
    I     Atom           X                Y                Z
 ----------------------------------------------------------------
    1      C       1.2486985409    -0.2157286565     0.2632680905
    2      C       0.0000003699     0.0000046590    -0.5834501651
    3      H       1.7706074680    -1.1181182045    -0.0571391955
    4      H       1.0009837495    -0.3367522414     1.3210903798
    5      H       1.9440610818     0.6195213354     0.1741014363
    6      C      -1.2486983432     0.2157251701     0.2632706398
    7      H      -0.1081954647    -0.8672866891    -1.2390839445
    8      H       0.1081963053     0.8673063801    -1.2390705503
    9      H      -1.0009827909     0.3367686399     1.3210901268
   10      H      -1.9440449454    -0.6195393440     0.1741154993
   11      H      -1.7706260317     1.1180996171    -0.0571472982
 ----------------------------------------------------------------

    7    -119.0912605017      4.21E-06 Convergence criterion met
    6    -119.1346511646      3.94E-06 Convergence criterion met
 Total energy in the final basis set = -119.13465116

                    Orbital Energies (a.u.)
 --------------------------------------------------------------

 Alpha MOs
 -- Occupied --
-10.2714 -10.2632 -10.2632  -0.8809  -0.7763  -0.6775  -0.5445  -0.5271
 -0.4763  -0.4706  -0.4222  -0.4114  -0.3979

                    Cartesian Multipole Moments
 -----------------------------------------------------------------
    Charge (ESU x 10^10)
                -0.0000
    Dipole Moment (Debye)
         X      -0.0000      Y       0.0000      Z      -0.0957
       Tot       0.0957
    Quadrupole Moments (Debye-Ang)
        XX     -22.4252     XY       0.1476     YY     -21.2200
        XZ       0.0000     YZ       0.0000     ZZ     -21.8048

 Total job time:  27.68s(wall), 74.89s(cpu)
        *  Thank you very much for using Q-Chem.  Have a nice day.  *
