 Q-Chem 5.3 (devel), Q-Chem, Inc., Pleasanton, CA (2020)
 Q-Chem 5.3.0 for Intel X86 EM64T Linux

User input:
--------------------------------------------------------------
$rem
   JOBTYPE  sp
   EXCHANGE   omegaB97X-D
   BASIS   6-311+G(2df,2pd)
   UNRESTRICTED   False
   max_scf_cycles   250
   geom_opt_max_cycles   1500
   basis2 6-31G*
   scf_algorithm rca_diis
   SYM_IGNORE  TRUE
   print_input   true
   geom_opt_dmax   80
   pop_mulliken false
   XC_GRID 000075000302
$end

$molecule
0 1
C       1.2662980842     -0.0916444186     0.2314190262
C       -0.0000002820     0.3143128213     -0.5131659670
H       0.9716775735     -0.5564749388     1.1759891209
H       1.9228537032     0.7464132848     0.4677809651
H       1.8453091862     -0.8245375870     -0.3313740288
C       -1.2662974486     -0.0916489792     0.2314189048
H       0.0000006796     -0.2366654579     -1.4563002370
H       -0.0000023569     1.3748623508     -0.7771143788
H       -0.9716779144     -0.5565014600     1.1759782267
H       -1.8453176091     -0.8245253587     -0.3313869147
H       -1.9228436763     0.7464104093     0.4678003015
$end
--------------------------------------------------------------

             Standard Nuclear Orientation (Angstroms)
    I     Atom           X                Y                Z
 ----------------------------------------------------------------
    1      C       1.2662980842    -0.0916444186     0.2314190262
    2      C      -0.0000002820     0.3143128213    -0.5131659670
    3      H       0.9716775735    -0.5564749388     1.1759891209
    4      H       1.9228537032     0.7464132848     0.4677809651
    5      H       1.8453091862    -0.8245375870    -0.3313740288
    6      C      -1.2662974486    -0.0916489792     0.2314189048
    7      H       0.0000006796    -0.2366654579    -1.4563002370
    8      H      -0.0000023569     1.3748623508    -0.7771143788
    9      H      -0.9716779144    -0.5565014600     1.1759782267
   10      H      -1.8453176091    -0.8245253587    -0.3313869147
   11      H      -1.9228436763     0.7464104093     0.4678003015
 ----------------------------------------------------------------

    7    -119.0893173428      4.12E-06 Convergence criterion met
    6    -119.1328892162      4.08E-06 Convergence criterion met
 Total energy in the final basis set = -119.13288922

                    Orbital Energies (a.u.)
 --------------------------------------------------------------

 Alpha MOs
 -- Occupied --
-10.2715 -10.2635 -10.2634  -0.8821  -0.7755  -0.6786  -0.5442  -0.5325
 -0.4718  -0.4686  -0.4196  -0.4164  -0.3982

                    Cartesian Multipole Moments
 -----------------------------------------------------------------
    Charge (ESU x 10^10)
                -0.0000
    Dipole Moment (Debye)
         X      -0.0000      Y       0.0146      Z      -0.0915
       Tot       0.0927
    Quadrupole Moments (Debye-Ang)
        XX     -22.2896     XY      -0.0000     YY     -21.3121
        XZ      -0.0000     YZ       0.3046     ZZ     -21.8560

 Total job time:  27.80s(wall), 75.30s(cpu)
        *  Thank you very much for using Q-Chem.  Have a nice day.  *
