 Q-Chem 5.3 (devel), Q-Chem, Inc., Pleasanton, CA (2020)
 Q-Chem 5.3.0 for Intel X86 EM64T Linux

User input:
--------------------------------------------------------------
$rem
   JOBTYPE  sp
   EXCHANGE   omegaB97X-D
   BASIS   6-311+G(2df,2pd)
   UNRESTRICTED   False
   max_scf_cycles   250
   geom_opt_max_cycles   1500
   basis2 6-31G*
   scf_algorithm rca_diis
   SYM_IGNORE  TRUE
   print_input   true
   geom_opt_dmax   80
   pop_mulliken false
   XC_GRID 000075000302
$end

$molecule
0 1
C       1.2604854221     0.0000013921     0.2588915207
C       -0.0000008556     0.0000004099     -0.6095876630
H       1.3188283322     -0.9292537786     0.8261448695
H       1.3188229908     0.9292558351     0.8261461770
H       2.1922036994     -0.0000047448     -0.3143238378
C       -1.2604872012     -0.0000009908     0.2588898129
H       0.0000007877     -0.9597758776     -1.1215453458
H       0.0000006350     0.9597764924     -1.1215457793
H       -1.3188236562     -0.9292503890     0.8261531876
H       -2.1922021553     0.0000035588     -0.3143303861
H       -1.3188280595     0.9292487585     0.8261524633
$end
--------------------------------------------------------------

             Standard Nuclear Orientation (Angstroms)
    I     Atom           X                Y                Z
 ----------------------------------------------------------------
    1      C       1.2604854221     0.0000013921     0.2588915207
    2      C      -0.0000008556     0.0000004099    -0.6095876630
    3      H       1.3188283322    -0.9292537786     0.8261448695
    4      H       1.3188229908     0.9292558351     0.8261461770
    5      H       2.1922036994    -0.0000047448    -0.3143238378
    6      C      -1.2604872012    -0.0000009908     0.2588898129
    7      H       0.0000007877    -0.9597758776    -1.1215453458
    8      H       0.0000006350     0.9597764924    -1.1215457793
    9      H      -1.3188236562    -0.9292503890     0.8261531876
   10      H      -2.1922021553     0.0000035588    -0.3143303861
   11      H      -1.3188280595     0.9292487585     0.8261524633
 ----------------------------------------------------------------

    7    -119.0890870080      6.01E-06 Convergence criterion met
    5    -119.1326120013      9.41E-06 Convergence criterion met
 Total energy in the final basis set = -119.13261200

                    Orbital Energies (a.u.)
 --------------------------------------------------------------

 Alpha MOs
 -- Occupied --
-10.2755 -10.2642 -10.2642  -0.8832  -0.7771  -0.6720  -0.5692  -0.5139
 -0.4797  -0.4636  -0.4270  -0.4180  -0.3913

                    Cartesian Multipole Moments
 -----------------------------------------------------------------
    Charge (ESU x 10^10)
                -0.0000
    Dipole Moment (Debye)
         X       0.0000      Y      -0.0000      Z      -0.0950
       Tot       0.0950
    Quadrupole Moments (Debye-Ang)
        XX     -22.0975     XY      -0.0000     YY     -20.4522
        XZ      -0.0000     YZ       0.0000     ZZ     -23.0540

 Total job time:  25.35s(wall), 67.79s(cpu)
        *  Thank you very much for using Q-Chem.  Have a nice day.  *
