 Q-Chem 5.3 (devel), Q-Chem, Inc., Pleasanton, CA (2020)
 Q-Chem 5.3.0 for Intel X86 EM64T Linux

User input:
--------------------------------------------------------------
$rem
   JOBTYPE  sp
   EXCHANGE   omegaB97X-D
   BASIS   6-311+G(2df,2pd)
   UNRESTRICTED   False
   max_scf_cycles   250
   geom_opt_max_cycles   1500
   basis2 6-31G*
   scf_algorithm rca_diis
   SYM_IGNORE  TRUE
   print_input   true
   geom_opt_dmax   80
   pop_mulliken false
   XC_GRID 000075000302
$end

$molecule
0 1
C       1.2671912240     -0.0364439491     0.2580892569
C       0.0000002957     -0.0359572468     -0.5886387938
H       1.2058562397     -0.8922444484     0.9286121264
H       1.4051300421     0.8577179118     0.8745778817
H       2.1578449529     0.1172051842     -0.3520337540
C       -1.2671904791     -0.0364441189     0.2580896687
H       0.0000001234     -0.9020613388     -1.2560816954
H       -0.0000002342     0.8455483037     -1.2327243114
H       -1.2058554114     -0.8922460315     0.9286105453
H       -2.1578453163     0.1172071607     -0.3520315058
H       -1.4051314975     0.8577192390     0.8745756004
$end
--------------------------------------------------------------

             Standard Nuclear Orientation (Angstroms)
    I     Atom           X                Y                Z
 ----------------------------------------------------------------
    1      C       1.2671912240    -0.0364439491     0.2580892569
    2      C       0.0000002957    -0.0359572468    -0.5886387938
    3      H       1.2058562397    -0.8922444484     0.9286121264
    4      H       1.4051300421     0.8577179118     0.8745778817
    5      H       2.1578449529     0.1172051842    -0.3520337540
    6      C      -1.2671904791    -0.0364441189     0.2580896687
    7      H       0.0000001234    -0.9020613388    -1.2560816954
    8      H      -0.0000002342     0.8455483037    -1.2327243114
    9      H      -1.2058554114    -0.8922460315     0.9286105453
   10      H      -2.1578453163     0.1172071607    -0.3520315058
   11      H      -1.4051314975     0.8577192390     0.8745756004
 ----------------------------------------------------------------

    7    -119.0885547319      5.51E-06 Convergence criterion met
    6    -119.1322529824      3.85E-06 Convergence criterion met
 Total energy in the final basis set = -119.13225298

                    Orbital Energies (a.u.)
 --------------------------------------------------------------

 Alpha MOs
 -- Occupied --
-10.2742 -10.2655 -10.2655  -0.8820  -0.7787  -0.6791  -0.5582  -0.5148
 -0.4869  -0.4702  -0.4176  -0.4055  -0.4035

                    Cartesian Multipole Moments
 -----------------------------------------------------------------
    Charge (ESU x 10^10)
                -0.0000
    Dipole Moment (Debye)
         X      -0.0000      Y       0.1889      Z      -0.0774
       Tot       0.2041
    Quadrupole Moments (Debye-Ang)
        XX     -22.1636     XY      -0.0000     YY     -21.3857
        XZ      -0.0000     YZ      -0.3142     ZZ     -21.9102

 Total job time:  26.69s(wall), 72.96s(cpu)
        *  Thank you very much for using Q-Chem.  Have a nice day.  *
