 Q-Chem 5.3 (devel), Q-Chem, Inc., Pleasanton, CA (2020)
 Q-Chem 5.3.0 for Intel X86 EM64T Linux

User input:
--------------------------------------------------------------
$rem
   JOBTYPE  sp
   EXCHANGE   omegaB97X-D
   BASIS   6-311+G(2df,2pd)
   UNRESTRICTED   False
   max_scf_cycles   250
   geom_opt_max_cycles   1500
   basis2 6-31G*
   scf_algorithm rca_diis
   SYM_IGNORE  TRUE
   print_input   true
   geom_opt_dmax   80
   pop_mulliken false
   XC_GRID 000075000302
$end

$molecule
0 1
C       1.2662964589     -0.0479345416     0.2599304083
C       0.0000000320     -0.0000008814     -0.5867788062
H       1.2838645036     -0.7919124734     0.8143226516
H       1.3304053894     0.9705915694     0.9916373825
H       2.1638055801     -0.0532013472     -0.3594021190
C       -1.2662963177     0.0479330779     0.2599304075
H       -0.0185605789     -0.8736929111     -1.2425750593
H       0.0185606708     0.8736949471     -1.2425778705
H       -1.3304050484     -0.9705910046     0.9916364281
H       -2.1638062328     0.0532004997     -0.3594026831
H       -1.2838645176     0.7919137313     0.8143242790
$end
--------------------------------------------------------------

             Standard Nuclear Orientation (Angstroms)
    I     Atom           X                Y                Z
 ----------------------------------------------------------------
    1      C       1.2662964589    -0.0479345416     0.2599304083
    2      C       0.0000000320    -0.0000008814    -0.5867788062
    3      H       1.2838645036    -0.7919124734     0.8143226516
    4      H       1.3304053894     0.9705915694     0.9916373825
    5      H       2.1638055801    -0.0532013472    -0.3594021190
    6      C      -1.2662963177     0.0479330779     0.2599304075
    7      H      -0.0185605789    -0.8736929111    -1.2425750593
    8      H       0.0185606708     0.8736949471    -1.2425778705
    9      H      -1.3304050484    -0.9705910046     0.9916364281
   10      H      -2.1638062328     0.0532004997    -0.3594026831
   11      H      -1.2838645176     0.7919137313     0.8143242790
 ----------------------------------------------------------------

    7    -119.0319553460      5.96E-06 Convergence criterion met
    5    -119.0778428926      9.00E-06 Convergence criterion met
 Total energy in the final basis set = -119.07784289

                    Orbital Energies (a.u.)
 --------------------------------------------------------------

 Alpha MOs
 -- Occupied --
-10.2759 -10.2635 -10.2635  -0.8856  -0.7868  -0.6862  -0.5507  -0.5262
 -0.4858  -0.4688  -0.4204  -0.4123  -0.4026

                    Cartesian Multipole Moments
 -----------------------------------------------------------------
    Charge (ESU x 10^10)
                -0.0000
    Dipole Moment (Debye)
         X       0.0000      Y      -0.0000      Z      -0.1869
       Tot       0.1869
    Quadrupole Moments (Debye-Ang)
        XX     -22.1722     XY      -0.6048     YY     -21.3578
        XZ      -0.0000     YZ       0.0000     ZZ     -21.9135

 Total job time:  25.30s(wall), 68.01s(cpu)
        *  Thank you very much for using Q-Chem.  Have a nice day.  *
