 Q-Chem 5.3 (devel), Q-Chem, Inc., Pleasanton, CA (2020)
 Q-Chem 5.3.0 for Intel X86 EM64T Linux

User input:
--------------------------------------------------------------
$rem
   JOBTYPE  sp
   EXCHANGE   omegaB97X-D
   BASIS   6-311+G(2df,2pd)
   UNRESTRICTED   False
   max_scf_cycles   250
   geom_opt_max_cycles   1500
   basis2 6-31G*
   scf_algorithm rca_diis
   SYM_IGNORE  TRUE
   print_input   true
   geom_opt_dmax   80
   pop_mulliken false
   XC_GRID 000075000302
$end

$molecule
0 1
C       1.3509973719     0.0000003673     0.1252187735
C       0.0541030608     0.0000000777     -0.5910341630
H       1.1779204487     -0.8364685673     0.8080021172
H       1.1779212781     0.8364687391     0.8080029904
H       2.3828493467     -0.0000000682     -0.2160008284
C       -1.1740787022     -0.0000001946     0.3814226970
H       -0.1463874008     -0.8666820848     -1.2254017641
H       -0.1463885907     0.8666818707     -1.2254019670
H       -1.4017303034     -0.8902248815     0.9681100084
H       -1.8734775679     0.0000005363     -0.4599828353
H       -1.4017290018     0.8902248712     0.9681099902
$end
--------------------------------------------------------------

             Standard Nuclear Orientation (Angstroms)
    I     Atom           X                Y                Z
 ----------------------------------------------------------------
    1      C       1.3509973719     0.0000003673     0.1252187735
    2      C       0.0541030608     0.0000000777    -0.5910341630
    3      H       1.1779204487    -0.8364685673     0.8080021172
    4      H       1.1779212781     0.8364687391     0.8080029904
    5      H       2.3828493467    -0.0000000682    -0.2160008284
    6      C      -1.1740787022    -0.0000001946     0.3814226970
    7      H      -0.1463874008    -0.8666820848    -1.2254017641
    8      H      -0.1463885907     0.8666818707    -1.2254019670
    9      H      -1.4017303034    -0.8902248815     0.9681100084
   10      H      -1.8734775679     0.0000005363    -0.4599828353
   11      H      -1.4017290018     0.8902248712     0.9681099902
 ----------------------------------------------------------------

    7    -119.0678872999      4.92E-06 Convergence criterion met
    6    -119.1120898698      4.37E-06 Convergence criterion met
 Total energy in the final basis set = -119.11208987

                    Orbital Energies (a.u.)
 --------------------------------------------------------------

 Alpha MOs
 -- Occupied --
-10.2813 -10.2684 -10.2622  -0.8898  -0.7817  -0.6790  -0.5475  -0.5363
 -0.4877  -0.4615  -0.4147  -0.4051  -0.4015

                    Cartesian Multipole Moments
 -----------------------------------------------------------------
    Charge (ESU x 10^10)
                -0.0000
    Dipole Moment (Debye)
         X      -0.1253      Y      -0.0000      Z      -0.0772
       Tot       0.1472
    Quadrupole Moments (Debye-Ang)
        XX     -22.0183     XY      -0.0000     YY     -21.5628
        XZ      -0.0967     YZ       0.0000     ZZ     -21.9942

 Total job time:  27.57s(wall), 74.88s(cpu)
        *  Thank you very much for using Q-Chem.  Have a nice day.  *
