 Q-Chem 5.3 (devel), Q-Chem, Inc., Pleasanton, CA (2020)
 Q-Chem 5.3.0 for Intel X86 EM64T Linux

User input:
--------------------------------------------------------------
$rem
   JOBTYPE  sp
   EXCHANGE   omegaB97X-D
   BASIS   6-311+G(2df,2pd)
   max_scf_cycles   250
   geom_opt_max_cycles   1500
   basis2 6-31G*
   scf_algorithm rca_diis
   SYM_IGNORE  TRUE
   print_input   true
   geom_opt_dmax   80
   pop_mulliken false
   XC_GRID 000075000302
$end

$molecule
0 1
C       1.2821309692     -0.0000000180     0.2694667241
C       0.0125289842     -0.0000000815     -0.5872744502
H       1.3113233682     -0.8081151564     0.8578989835
H       1.3113233073     0.8081150703     0.8578989764
H       2.1161933547     0.0000000118     -0.3068434193
C       -1.2522118489     -0.0000002159     0.2494398863
H       0.0160647987     -0.8738717920     -1.2430862806
H       0.0160646841     0.8738718111     -1.2430863723
H       -1.3002065070     -0.9529380758     0.9499191248
H       -2.2130045713     0.0000005646     -0.4132078218
H       -1.3002065998     0.9529385479     0.9499196679
$end
--------------------------------------------------------------

             Standard Nuclear Orientation (Angstroms)
    I     Atom           X                Y                Z
 ----------------------------------------------------------------
    1      C       1.2821309692    -0.0000000180     0.2694667241
    2      C       0.0125289842    -0.0000000815    -0.5872744502
    3      H       1.3113233682    -0.8081151564     0.8578989835
    4      H       1.3113233073     0.8081150703     0.8578989764
    5      H       2.1161933547     0.0000000118    -0.3068434193
    6      C      -1.2522118489    -0.0000002159     0.2494398863
    7      H       0.0160647987    -0.8738717920    -1.2430862806
    8      H       0.0160646841     0.8738718111    -1.2430863723
    9      H      -1.3002065070    -0.9529380758     0.9499191248
   10      H      -2.2130045713     0.0000005646    -0.4132078218
   11      H      -1.3002065998     0.9529385479     0.9499196679
 ----------------------------------------------------------------

    7    -119.0738909600      5.07E-06 Convergence criterion met
    6    -119.1178915050      4.23E-06 Convergence criterion met
 Total energy in the final basis set = -119.11789150

                    Orbital Energies (a.u.)
 --------------------------------------------------------------

 Alpha MOs
 -- Occupied --
-10.2916 -10.2746 -10.2365  -0.8839  -0.7810  -0.6752  -0.5484  -0.5269
 -0.4824  -0.4656  -0.4254  -0.4103  -0.4051

                    Cartesian Multipole Moments
 -----------------------------------------------------------------
    Charge (ESU x 10^10)
                 0.0000
    Dipole Moment (Debye)
         X       0.1951      Y      -0.0000      Z      -0.0996
       Tot       0.2191
    Quadrupole Moments (Debye-Ang)
        XX     -22.1569     XY       0.0000     YY     -21.3569
        XZ       0.1967     YZ      -0.0000     ZZ     -21.8236

 Total job time:  27.56s(wall), 74.12s(cpu)
        *  Thank you very much for using Q-Chem.  Have a nice day.  *
