 Q-Chem 5.3 (devel), Q-Chem, Inc., Pleasanton, CA (2020)
 Q-Chem 5.3.0 for Intel X86 EM64T Linux

User input:
--------------------------------------------------------------
$rem
   JOBTYPE  sp
   EXCHANGE   omegaB97X-D
   BASIS   6-311+G(2df,2pd)
   UNRESTRICTED   False
   max_scf_cycles   250
   geom_opt_max_cycles   1500
   basis2 6-31G*
   scf_algorithm rca_diis
   SYM_IGNORE  TRUE
   print_input   true
   geom_opt_dmax   80
   pop_mulliken false
   XC_GRID 000075000302
$end

$molecule
0 1
C       1.2628274831     0.1073813740     0.2577810756
C       0.0000000400     0.0000000178     -0.5886565393
H       1.2748665142     -0.8318396084     0.8156966238
H       1.3329232045     0.9243874670     0.9777730083
H       2.1580618117     0.0416293020     -0.3613752424
C       -1.2628273854     -0.1073811490     0.2577811124
H       -0.3326503841     -0.8234899558     -1.2250248532
H       0.3326506410     0.8234898685     -1.2250248946
H       -1.3329231434     -0.9243874268     0.9777728007
H       -2.1580618984     -0.0416289135     -0.3613749625
H       -1.2748669437     0.8318396901     0.8156968900
$end
--------------------------------------------------------------

             Standard Nuclear Orientation (Angstroms)
    I     Atom           X                Y                Z
 ----------------------------------------------------------------
    1      C       1.2628274831     0.1073813740     0.2577810756
    2      C       0.0000000400     0.0000000178    -0.5886565393
    3      H       1.2748665142    -0.8318396084     0.8156966238
    4      H       1.3329232045     0.9243874670     0.9777730083
    5      H       2.1580618117     0.0416293020    -0.3613752424
    6      C      -1.2628273854    -0.1073811490     0.2577811124
    7      H      -0.3326503841    -0.8234899558    -1.2250248532
    8      H       0.3326506410     0.8234898685    -1.2250248946
    9      H      -1.3329231434    -0.9243874268     0.9777728007
   10      H      -2.1580618984    -0.0416289135    -0.3613749625
   11      H      -1.2748669437     0.8318396901     0.8156968900
 ----------------------------------------------------------------

    7    -119.0539837074      6.37E-06 Convergence criterion met
    6    -119.0986800020      4.44E-06 Convergence criterion met
 Total energy in the final basis set = -119.09868000

                    Orbital Energies (a.u.)
 --------------------------------------------------------------

 Alpha MOs
 -- Occupied --
-10.2734 -10.2680 -10.2680  -0.8869  -0.7834  -0.6773  -0.5514  -0.5273
 -0.5030  -0.4717  -0.4329  -0.4047  -0.3597

                    Cartesian Multipole Moments
 -----------------------------------------------------------------
    Charge (ESU x 10^10)
                -0.0000
    Dipole Moment (Debye)
         X      -0.0000      Y       0.0000      Z      -0.0099
       Tot       0.0099
    Quadrupole Moments (Debye-Ang)
        XX     -21.9169     XY       0.9303     YY     -21.6338
        XZ      -0.0000     YZ       0.0000     ZZ     -22.0886

 Total job time:  26.02s(wall), 71.77s(cpu)
        *  Thank you very much for using Q-Chem.  Have a nice day.  *
