 Q-Chem 5.3 (devel), Q-Chem, Inc., Pleasanton, CA (2020)
 Q-Chem 5.3.0 for Intel X86 EM64T Linux

User input:
--------------------------------------------------------------
$rem
   JOBTYPE  sp
   EXCHANGE   omegaB97X-D
   BASIS   6-311+G(2df,2pd)
   UNRESTRICTED   False
   max_scf_cycles   250
   geom_opt_max_cycles   1500
   basis2 6-31G*
   scf_algorithm rca_diis
   SYM_IGNORE  TRUE
   print_input   true
   geom_opt_dmax   80
   pop_mulliken false
   XC_GRID 000075000302
$end

$molecule
0 1
C       1.2633425148     -0.0000004523     0.2758820351
C       0.0000000412     -0.0000004992     -0.5747237738
H       1.3035938142     -0.8597645411     0.9012813772
H       1.3035937990     0.8597652509     0.9012823830
H       2.2130847427     -0.0000002979     -0.3825525690
C       -1.2633422467     -0.0000005596     0.2758822993
H       0.0000000162     -0.8823888498     -1.2380081732
H       -0.0000000740     0.8823893143     -1.2380090978
H       -1.3035935013     -0.8597639757     0.9012811103
H       -2.2130856331     0.0000003234     -0.3825529972
H       -1.3035935336     0.8597649531     0.9012824251
$end
--------------------------------------------------------------

             Standard Nuclear Orientation (Angstroms)
    I     Atom           X                Y                Z
 ----------------------------------------------------------------
    1      C       1.2633425148    -0.0000004523     0.2758820351
    2      C       0.0000000412    -0.0000004992    -0.5747237738
    3      H       1.3035938142    -0.8597645411     0.9012813772
    4      H       1.3035937990     0.8597652509     0.9012823830
    5      H       2.2130847427    -0.0000002979    -0.3825525690
    6      C      -1.2633422467    -0.0000005596     0.2758822993
    7      H       0.0000000162    -0.8823888498    -1.2380081732
    8      H      -0.0000000740     0.8823893143    -1.2380090978
    9      H      -1.3035935013    -0.8597639757     0.9012811103
   10      H      -2.2130856331     0.0000003234    -0.3825529972
   11      H      -1.3035935336     0.8597649531     0.9012824251
 ----------------------------------------------------------------

    7    -119.0965344424      4.27E-06 Convergence criterion met
    6    -119.1394568110      3.79E-06 Convergence criterion met
 Total energy in the final basis set = -119.13945681

                    Orbital Energies (a.u.)
 --------------------------------------------------------------

 Alpha MOs
 -- Occupied --
-10.2765 -10.2664 -10.2664  -0.8818  -0.7766  -0.6781  -0.5488  -0.5149
 -0.4837  -0.4714  -0.4174  -0.4118  -0.4093

                    Cartesian Multipole Moments
 -----------------------------------------------------------------
    Charge (ESU x 10^10)
                 0.0000
    Dipole Moment (Debye)
         X       0.0000      Y      -0.0000      Z       0.0266
       Tot       0.0266
    Quadrupole Moments (Debye-Ang)
        XX     -22.4096     XY      -0.0000     YY     -21.3887
        XZ      -0.0000     YZ      -0.0000     ZZ     -21.7934

 Total job time:  26.36s(wall), 72.32s(cpu)
        *  Thank you very much for using Q-Chem.  Have a nice day.  *
