 Q-Chem 5.3 (devel), Q-Chem, Inc., Pleasanton, CA (2020)
 Q-Chem 5.3.0 for Intel X86 EM64T Linux

User input:
--------------------------------------------------------------
$rem
   JOBTYPE  sp
   EXCHANGE   omegaB97X-D
   BASIS   6-311+G(2df,2pd)
   UNRESTRICTED   False
   max_scf_cycles   250
   geom_opt_max_cycles   1500
   basis2 6-31G*
   scf_algorithm rca_diis
   SYM_IGNORE  TRUE
   print_input   true
   geom_opt_dmax   80
   pop_mulliken false
   XC_GRID 000075000302
$end

$molecule
0 1
C       1.2329835135     -0.0000000763     0.1960065145
C       -0.0000004894     -0.0000001247     -0.6226961162
H       1.4345398633     -0.8072050358     0.9093298996
H       1.4345397404     0.8072049586     0.9093298348
H       2.2276708799     -0.0000001110     -0.2606710081
C       -1.2329849021     0.0000000209     0.1960070314
H       -0.0000001435     -0.8761513566     -1.2721244426
H       -0.0000007080     0.8761512635     -1.2721242006
H       -1.4345380805     -0.8072054283     0.9093306367
H       -2.2276706775     0.0000011372     -0.2606734869
H       -1.4345390567     0.8072054185     0.9093303565
$end
--------------------------------------------------------------

             Standard Nuclear Orientation (Angstroms)
    I     Atom           X                Y                Z
 ----------------------------------------------------------------
    1      C       1.2329835135    -0.0000000763     0.1960065145
    2      C      -0.0000004894    -0.0000001247    -0.6226961162
    3      H       1.4345398633    -0.8072050358     0.9093298996
    4      H       1.4345397404     0.8072049586     0.9093298348
    5      H       2.2276708799    -0.0000001110    -0.2606710081
    6      C      -1.2329849021     0.0000000209     0.1960070314
    7      H      -0.0000001435    -0.8761513566    -1.2721244426
    8      H      -0.0000007080     0.8761512635    -1.2721242006
    9      H      -1.4345380805    -0.8072054283     0.9093306367
   10      H      -2.2276706775     0.0000011372    -0.2606734869
   11      H      -1.4345390567     0.8072054185     0.9093303565
 ----------------------------------------------------------------

    7    -119.0740211097      4.75E-06 Convergence criterion met
    6    -119.1189854134      3.94E-06 Convergence criterion met
 Total energy in the final basis set = -119.11898541

                    Orbital Energies (a.u.)
 --------------------------------------------------------------

 Alpha MOs
 -- Occupied --
-10.2812 -10.2637 -10.2637  -0.8910  -0.7858  -0.6985  -0.5415  -0.5289
 -0.5010  -0.4420  -0.4213  -0.4192  -0.3966

                    Cartesian Multipole Moments
 -----------------------------------------------------------------
    Charge (ESU x 10^10)
                 0.0000
    Dipole Moment (Debye)
         X       0.0000      Y       0.0000      Z       0.0189
       Tot       0.0189
    Quadrupole Moments (Debye-Ang)
        XX     -21.0161     XY      -0.0000     YY     -22.0240
        XZ       0.0000     YZ      -0.0000     ZZ     -21.6506

 Total job time:  26.85s(wall), 72.93s(cpu)
        *  Thank you very much for using Q-Chem.  Have a nice day.  *
