 Q-Chem 5.3 (devel), Q-Chem, Inc., Pleasanton, CA (2020)
 Q-Chem 5.3.0 for Intel X86 EM64T Linux

User input:
--------------------------------------------------------------
$rem
   JOBTYPE  sp
   EXCHANGE   omegaB97X-D
   BASIS   6-311+G(2df,2pd)
   UNRESTRICTED   False
   max_scf_cycles   250
   geom_opt_max_cycles   1500
   basis2 6-31G*
   scf_algorithm rca_diis
   SYM_IGNORE  TRUE
   print_input   true
   geom_opt_dmax   80
   pop_mulliken false
   XC_GRID 000075000302
$end

$molecule
0 1
C       1.1867335020     -0.0000001266     0.2637066923
C       -0.0000000041     0.0000000039     -0.4893464790
H       1.3034623740     -0.8879706926     0.8866225983
H       1.3034619331     0.8879707726     0.8866222210
H       1.9883966922     0.0000000998     -0.4745332005
C       -1.1867334192     0.0000001463     0.2637067414
H       -0.0000006109     -0.8724833731     -1.1472223841
H       0.0000001878     0.8724832816     -1.1472225160
H       -1.3034619288     -0.8879708881     0.8866220291
H       -1.9883964405     0.0000006936     -0.4745333415
H       -1.3034623463     0.8879707487     0.8866226579
$end
--------------------------------------------------------------

             Standard Nuclear Orientation (Angstroms)
    I     Atom           X                Y                Z
 ----------------------------------------------------------------
    1      C       1.1867335020    -0.0000001266     0.2637066923
    2      C      -0.0000000041     0.0000000039    -0.4893464790
    3      H       1.3034623740    -0.8879706926     0.8866225983
    4      H       1.3034619331     0.8879707726     0.8866222210
    5      H       1.9883966922     0.0000000998    -0.4745332005
    6      C      -1.1867334192     0.0000001463     0.2637067414
    7      H      -0.0000006109    -0.8724833731    -1.1472223841
    8      H       0.0000001878     0.8724832816    -1.1472225160
    9      H      -1.3034619288    -0.8879708881     0.8866220291
   10      H      -1.9883964405     0.0000006936    -0.4745333415
   11      H      -1.3034623463     0.8879707487     0.8866226579
 ----------------------------------------------------------------

    7    -119.0788728199      4.85E-06 Convergence criterion met
    6    -119.1239336077      3.12E-06 Convergence criterion met
 Total energy in the final basis set = -119.12393361

                    Orbital Energies (a.u.)
 --------------------------------------------------------------

 Alpha MOs
 -- Occupied --
-10.2541 -10.2536 -10.2533  -0.9172  -0.7887  -0.6673  -0.5667  -0.5394
 -0.5046  -0.4662  -0.4175  -0.4102  -0.3949

                    Cartesian Multipole Moments
 -----------------------------------------------------------------
    Charge (ESU x 10^10)
                -0.0000
    Dipole Moment (Debye)
         X      -0.0000      Y       0.0000      Z      -0.1684
       Tot       0.1684
    Quadrupole Moments (Debye-Ang)
        XX     -22.8030     XY      -0.0000     YY     -21.1020
        XZ       0.0000     YZ      -0.0000     ZZ     -21.7007

 Total job time:  29.38s(wall), 79.09s(cpu)
        *  Thank you very much for using Q-Chem.  Have a nice day.  *
