 Q-Chem 5.3 (devel), Q-Chem, Inc., Pleasanton, CA (2020)
 Q-Chem 5.3.0 for Intel X86 EM64T Linux

User input:
--------------------------------------------------------------
$rem
   JOBTYPE  sp
   EXCHANGE   omegaB97X-D
   BASIS   6-311+G(2df,2pd)
   UNRESTRICTED   False
   max_scf_cycles   250
   geom_opt_max_cycles   1500
   basis2 6-31G*
   scf_algorithm rca_diis
   SYM_IGNORE  TRUE
   print_input   true
   geom_opt_dmax   80
   pop_mulliken false
   XC_GRID 000075000302
$end

$molecule
0 1
C       1.2407972433     -0.0000000420     0.2607718045
C       -0.0000000009     0.0000000013     -0.5542464595
H       1.3055150396     -0.8833533707     0.8987339709
H       1.3055148949     0.8833533964     0.8987338385
H       2.1080902745     0.0000000341     -0.3998629596
C       -1.2407972136     0.0000000370     0.2607718219
H       -0.0000002000     -0.8734273534     -1.2107308565
H       0.0000000205     0.8734273229     -1.2107309006
H       -1.3055148950     -0.8833534368     0.8987337763
H       -2.1080901953     0.0000006872     -0.3998630099
H       -1.3055150286     0.8833533901     0.8987339929
$end
--------------------------------------------------------------

             Standard Nuclear Orientation (Angstroms)
    I     Atom           X                Y                Z
 ----------------------------------------------------------------
    1      C       1.2407972433    -0.0000000420     0.2607718045
    2      C      -0.0000000009     0.0000000013    -0.5542464595
    3      H       1.3055150396    -0.8833533707     0.8987339709
    4      H       1.3055148949     0.8833533964     0.8987338385
    5      H       2.1080902745     0.0000000341    -0.3998629596
    6      C      -1.2407972136     0.0000000370     0.2607718219
    7      H      -0.0000002000    -0.8734273534    -1.2107308565
    8      H       0.0000000205     0.8734273229    -1.2107309006
    9      H      -1.3055148950    -0.8833534368     0.8987337763
   10      H      -2.1080901953     0.0000006872    -0.3998630099
   11      H      -1.3055150286     0.8833533901     0.8987339929
 ----------------------------------------------------------------

    7    -119.1005108808      4.55E-06 Convergence criterion met
    6    -119.1439208164      3.62E-06 Convergence criterion met
 Total energy in the final basis set = -119.14392082

                    Orbital Energies (a.u.)
 --------------------------------------------------------------

 Alpha MOs
 -- Occupied --
-10.2674 -10.2614 -10.2614  -0.8922  -0.7803  -0.6741  -0.5521  -0.5285
 -0.4894  -0.4645  -0.4183  -0.4166  -0.4035

                    Cartesian Multipole Moments
 -----------------------------------------------------------------
    Charge (ESU x 10^10)
                -0.0000
    Dipole Moment (Debye)
         X      -0.0000      Y       0.0000      Z      -0.1143
       Tot       0.1143
    Quadrupole Moments (Debye-Ang)
        XX     -22.3789     XY      -0.0000     YY     -21.2743
        XZ       0.0000     YZ      -0.0000     ZZ     -21.7990

 Total job time:  27.82s(wall), 75.16s(cpu)
        *  Thank you very much for using Q-Chem.  Have a nice day.  *
