 Q-Chem 5.3 (devel), Q-Chem, Inc., Pleasanton, CA (2020)
 Q-Chem 5.3.0 for Intel X86 EM64T Linux

User input:
--------------------------------------------------------------
$rem
   JOBTYPE  sp
   EXCHANGE   omegaB97X-D
   BASIS   6-311+G(2df,2pd)
   max_scf_cycles   250
   geom_opt_max_cycles   1500
   basis2 6-31G*
   scf_algorithm rca_diis
   SYM_IGNORE  TRUE
   print_input   true
   geom_opt_dmax   80
   pop_mulliken false
   XC_GRID 000075000302
$end

$molecule
0 1
C       1.2665638633     -0.0000000004     0.2549080710
C       -0.0000000688     0.0000000041     -0.5995454826
H       1.3049389215     -0.8784714584     0.8971521718
H       1.3049389095     0.8784714702     0.8971522036
H       2.1726183414     0.0000000076     -0.3715523990
C       -1.2665640403     -0.0000000735     0.2549081548
H       -0.0000000758     -0.8156468206     -1.2073647132
H       -0.0000001502     0.8156467076     -1.2073646137
H       -1.3049389848     -0.8784706381     0.8971516022
H       -2.1726177639     0.0000006467     -0.3715518089
H       -1.3049390126     0.8784708209     0.8971518329
$end
--------------------------------------------------------------

             Standard Nuclear Orientation (Angstroms)
    I     Atom           X                Y                Z
 ----------------------------------------------------------------
    1      C       1.2665638633    -0.0000000004     0.2549080710
    2      C      -0.0000000688     0.0000000041    -0.5995454826
    3      H       1.3049389215    -0.8784714584     0.8971521718
    4      H       1.3049389095     0.8784714702     0.8971522036
    5      H       2.1726183414     0.0000000076    -0.3715523990
    6      C      -1.2665640403    -0.0000000735     0.2549081548
    7      H      -0.0000000758    -0.8156468206    -1.2073647132
    8      H      -0.0000001502     0.8156467076    -1.2073646137
    9      H      -1.3049389848    -0.8784706381     0.8971516022
   10      H      -2.1726177639     0.0000006467    -0.3715518089
   11      H      -1.3049390126     0.8784708209     0.8971518329
 ----------------------------------------------------------------

    7    -119.0940392016      5.26E-06 Convergence criterion met
    5    -119.1380560067      7.71E-06 Convergence criterion met
 Total energy in the final basis set = -119.13805601

                    Orbital Energies (a.u.)
 --------------------------------------------------------------

 Alpha MOs
 -- Occupied --
-10.2645 -10.2645 -10.2572  -0.8849  -0.7750  -0.6892  -0.5530  -0.5217
 -0.4816  -0.4634  -0.4211  -0.4164  -0.4149

                    Cartesian Multipole Moments
 -----------------------------------------------------------------
    Charge (ESU x 10^10)
                -0.0000
    Dipole Moment (Debye)
         X      -0.0000      Y       0.0000      Z      -0.1638
       Tot       0.1638
    Quadrupole Moments (Debye-Ang)
        XX     -22.2203     XY      -0.0000     YY     -21.2604
        XZ      -0.0000     YZ      -0.0000     ZZ     -21.6004

 Total job time:  23.82s(wall), 65.16s(cpu)
        *  Thank you very much for using Q-Chem.  Have a nice day.  *
