 Q-Chem 5.3 (devel), Q-Chem, Inc., Pleasanton, CA (2020)
 Q-Chem 5.3.0 for Intel X86 EM64T Linux

User input:
--------------------------------------------------------------
$rem
   JOBTYPE  sp
   EXCHANGE   omegaB97X-D
   BASIS   6-311+G(2df,2pd)
   UNRESTRICTED   False
   max_scf_cycles   250
   geom_opt_max_cycles   1500
   basis2 6-31G*
   scf_algorithm rca_diis
   SYM_IGNORE  TRUE
   print_input   true
   geom_opt_dmax   80
   pop_mulliken false
   XC_GRID 000075000302
$end

$molecule
0 1
C       1.2687965363     0.0000000016     0.2737418959
C       0.0000002019     -0.0000000091     -0.5498998015
H       1.3058807525     -0.8872028142     0.9243705099
H       1.3058807898     0.8872027782     0.9243704166
H       2.1402826878     -0.0000000208     -0.3248477773
C       -1.2687960095     0.0000001465     0.2737416465
H       0.0000002320     -1.0466187426     -1.3521628902
H       0.0000002258     1.0466190815     -1.3521631978
H       -1.3058805648     -0.8872052747     0.9243722251
H       -2.1402844271     0.0000007968     -0.3248495411
H       -1.3058804853     0.8872047227     0.9243715331
$end
--------------------------------------------------------------

             Standard Nuclear Orientation (Angstroms)
    I     Atom           X                Y                Z
 ----------------------------------------------------------------
    1      C       1.2687965363     0.0000000016     0.2737418959
    2      C       0.0000002019    -0.0000000091    -0.5498998015
    3      H       1.3058807525    -0.8872028142     0.9243705099
    4      H       1.3058807898     0.8872027782     0.9243704166
    5      H       2.1402826878    -0.0000000208    -0.3248477773
    6      C      -1.2687960095     0.0000001465     0.2737416465
    7      H       0.0000002320    -1.0466187426    -1.3521628902
    8      H       0.0000002258     1.0466190815    -1.3521631978
    9      H      -1.3058805648    -0.8872052747     0.9243722251
   10      H      -2.1402844271     0.0000007968    -0.3248495411
   11      H      -1.3058804853     0.8872047227     0.9243715331
 ----------------------------------------------------------------

    7    -119.0616723164      5.00E-06 Convergence criterion met
    6    -119.1038322466      4.10E-06 Convergence criterion met
 Total energy in the final basis set = -119.10383225

                    Orbital Energies (a.u.)
 --------------------------------------------------------------

 Alpha MOs
 -- Occupied --
-10.3181 -10.2683 -10.2683  -0.8789  -0.7851  -0.6524  -0.5327  -0.5312
 -0.4870  -0.4656  -0.4321  -0.4064  -0.3810

                    Cartesian Multipole Moments
 -----------------------------------------------------------------
    Charge (ESU x 10^10)
                -0.0000
    Dipole Moment (Debye)
         X       0.0000      Y       0.0000      Z       0.2711
       Tot       0.2711
    Quadrupole Moments (Debye-Ang)
        XX     -21.8613     XY      -0.0000     YY     -21.7455
        XZ       0.0000     YZ       0.0000     ZZ     -22.6053

 Total job time:  26.95s(wall), 73.12s(cpu)
        *  Thank you very much for using Q-Chem.  Have a nice day.  *
