 Q-Chem 5.3 (devel), Q-Chem, Inc., Pleasanton, CA (2020)
 Q-Chem 5.3.0 for Intel X86 EM64T Linux

User input:
--------------------------------------------------------------
$rem
   JOBTYPE  sp
   EXCHANGE   omegaB97X-D
   BASIS   6-311+G(2df,2pd)
   UNRESTRICTED   False
   max_scf_cycles   250
   geom_opt_max_cycles   1500
   basis2 6-31G*
   scf_algorithm rca_diis
   SYM_IGNORE  TRUE
   print_input   true
   geom_opt_dmax   80
   pop_mulliken false
   XC_GRID 000075000302
$end

$molecule
0 1
C       -4.5055582427     0.5160171922     0.0003023690
C       -3.3326782366     1.1941907062     -0.0003046054
H       -5.2425592458     0.8386304254     -0.4581023751
H       -4.5938007031     -0.2825915128     0.4576589512
H       -3.2444366974     1.9928039976     -0.4576589260
H       -2.5956768744     0.8715791915     0.4581045863
$end
--------------------------------------------------------------

             Standard Nuclear Orientation (Angstroms)
    I     Atom           X                Y                Z
 ----------------------------------------------------------------
    1      C      -4.5055582427     0.5160171922     0.0003023690
    2      C      -3.3326782366     1.1941907062    -0.0003046054
    3      H      -5.2425592458     0.8386304254    -0.4581023751
    4      H      -4.5938007031    -0.2825915128     0.4576589512
    5      H      -3.2444366974     1.9928039976    -0.4576589260
    6      H      -2.5956768744     0.8715791915     0.4581045863
 ----------------------------------------------------------------

    8     -78.4594141004      1.23E-07 Convergence criterion met
    5     -78.4983010759      4.77E-06 Convergence criterion met
 Total energy in the final basis set = -78.49830108

                    Orbital Energies (a.u.)
 --------------------------------------------------------------

 Alpha MOs
 -- Occupied --
-10.2500 -10.2492  -0.8796  -0.7265  -0.5974  -0.5162  -0.4810  -0.3535

                    Cartesian Multipole Moments
 -----------------------------------------------------------------
    Charge (ESU x 10^10)
                -0.0000
    Dipole Moment (Debye)
         X      -0.0000      Y      -0.0000      Z       0.0000
       Tot       0.0000
    Quadrupole Moments (Debye-Ang)
        XX     -12.0485     XY       0.6284     YY     -12.7705
        XZ       0.6638     YZ      -1.1492     ZZ     -14.0734

 Total job time:  4.61s(wall), 24.30s(cpu)
        *  Thank you very much for using Q-Chem.  Have a nice day.  *
