 Q-Chem 5.3 (devel), Q-Chem, Inc., Pleasanton, CA (2020)
 Q-Chem 5.3.0 for Intel X86 EM64T Linux

User input:
--------------------------------------------------------------
$rem
   JOBTYPE  sp
   EXCHANGE   omegaB97X-D
   BASIS   6-311+G(2df,2pd)
   UNRESTRICTED   False
   max_scf_cycles   250
   geom_opt_max_cycles   1500
   basis2 6-31G*
   scf_algorithm rca_diis
   SYM_IGNORE  TRUE
   print_input   true
   geom_opt_dmax   80
   pop_mulliken false
   XC_GRID 000075000302
$end

$molecule
0 1
C       -4.5480361259     0.4909879157     -0.0003144714
C       -3.2902094799     1.2192359689     0.0003377618
H       -5.5489436548     0.6161476385     -0.4300811741
H       -4.9402205747     -0.4379256403     0.4304335762
H       -2.8980147383     2.1481340521     -0.4304341782
H       -2.2892854264     1.0940500653     0.4300584858
$end
--------------------------------------------------------------

             Standard Nuclear Orientation (Angstroms)
    I     Atom           X                Y                Z
 ----------------------------------------------------------------
    1      C      -4.5480361259     0.4909879157    -0.0003144714
    2      C      -3.2902094799     1.2192359689     0.0003377618
    3      H      -5.5489436548     0.6161476385    -0.4300811741
    4      H      -4.9402205747    -0.4379256403     0.4304335762
    5      H      -2.8980147383     2.1481340521    -0.4304341782
    6      H      -2.2892854264     1.0940500653     0.4300584858
 ----------------------------------------------------------------

    7     -78.4784845164      7.98E-07 Convergence criterion met
    5     -78.5109038744      7.48E-06 Convergence criterion met
 Total energy in the final basis set = -78.51090387

                    Orbital Energies (a.u.)
 --------------------------------------------------------------

 Alpha MOs
 -- Occupied --
-10.3200 -10.3196  -0.8381  -0.7250  -0.5618  -0.4940  -0.4042  -0.3457

                    Cartesian Multipole Moments
 -----------------------------------------------------------------
    Charge (ESU x 10^10)
                -0.0000
    Dipole Moment (Debye)
         X       0.0000      Y      -0.0000      Z      -0.0000
       Tot       0.0001
    Quadrupole Moments (Debye-Ang)
        XX     -10.6868     XY       2.5801     YY     -13.6601
        XZ       0.3583     YZ      -0.6254     ZZ     -15.6609

 Total job time:  4.16s(wall), 21.90s(cpu)
        *  Thank you very much for using Q-Chem.  Have a nice day.  *
