 Q-Chem 5.3 (devel), Q-Chem, Inc., Pleasanton, CA (2020)
 Q-Chem 5.3.0 for Intel X86 EM64T Linux

User input:
--------------------------------------------------------------
$rem
   JOBTYPE  sp
   EXCHANGE   omegaB97X-D
   BASIS   6-311+G(2df,2pd)
   UNRESTRICTED   False
   max_scf_cycles   250
   geom_opt_max_cycles   1500
   basis2 6-31G*
   scf_algorithm rca_diis
   SYM_IGNORE  TRUE
   print_input   true
   geom_opt_dmax   80
   pop_mulliken false
   XC_GRID 000075000302
$end

$molecule
0 1
C       -4.3671838658     0.4196658235     -0.2152751425
C       -3.4710573501     1.2905561264     0.2152883837
H       -5.3114560718     0.9025705195     -0.4328557733
H       -4.6155077901     -0.3031390696     0.5513181255
H       -3.2227192799     2.0133355602     -0.5513239288
H       -2.5267856423     0.8076410402     0.4328483354
$end
--------------------------------------------------------------

             Standard Nuclear Orientation (Angstroms)
    I     Atom           X                Y                Z
 ----------------------------------------------------------------
    1      C      -4.3671838658     0.4196658235    -0.2152751425
    2      C      -3.4710573501     1.2905561264     0.2152883837
    3      H      -5.3114560718     0.9025705195    -0.4328557733
    4      H      -4.6155077901    -0.3031390696     0.5513181255
    5      H      -3.2227192799     2.0133355602    -0.5513239288
    6      H      -2.5267856423     0.8076410402     0.4328483354
 ----------------------------------------------------------------

    7     -78.4904125188      1.04E-06 Convergence criterion met
    5     -78.5223261229      6.76E-06 Convergence criterion met
 Total energy in the final basis set = -78.52232612

                    Orbital Energies (a.u.)
 --------------------------------------------------------------

 Alpha MOs
 -- Occupied --
-10.2872 -10.2862  -0.8853  -0.6811  -0.5537  -0.4873  -0.4114  -0.3836

                    Cartesian Multipole Moments
 -----------------------------------------------------------------
    Charge (ESU x 10^10)
                 0.0000
    Dipole Moment (Debye)
         X      -0.0001      Y      -0.0002      Z      -0.0002
       Tot       0.0003
    Quadrupole Moments (Debye-Ang)
        XX     -12.6982     XY       0.1670     YY     -14.0158
        XZ      -0.1361     YZ      -1.1574     ZZ     -14.4919

 Total job time:  4.37s(wall), 23.00s(cpu)
        *  Thank you very much for using Q-Chem.  Have a nice day.  *
