 Q-Chem 5.3 (devel), Q-Chem, Inc., Pleasanton, CA (2020)
 Q-Chem 5.3.0 for Intel X86 EM64T Linux

User input:
--------------------------------------------------------------
$rem
   JOBTYPE  sp
   EXCHANGE   omegaB97X-D
   BASIS   6-311+G(2df,2pd)
   UNRESTRICTED   False
   max_scf_cycles   250
   geom_opt_max_cycles   1500
   basis2 6-31G*
   scf_algorithm rca_diis
   SYM_IGNORE  TRUE
   print_input   true
   geom_opt_dmax   80
   pop_mulliken false
   XC_GRID 000075000302
$end

$molecule
0 1
C       -4.5043117559     0.5466904264     -0.0180179823
C       -3.3598074873     1.2080879139     -0.0184547008
H       -5.3306884142     0.8938091710     -0.5230291581
H       -4.6215805749     -0.4352308373     0.5412293213
H       -3.2478388223     2.0978627730     -0.5231701754
H       -2.4504829454     0.8194105532     0.5414426953
$end
--------------------------------------------------------------

             Standard Nuclear Orientation (Angstroms)
    I     Atom           X                Y                Z
 ----------------------------------------------------------------
    1      C      -4.5043117559     0.5466904264    -0.0180179823
    2      C      -3.3598074873     1.2080879139    -0.0184547008
    3      H      -5.3306884142     0.8938091710    -0.5230291581
    4      H      -4.6215805749    -0.4352308373     0.5412293213
    5      H      -3.2478388223     2.0978627730    -0.5231701754
    6      H      -2.4504829454     0.8194105532     0.5414426953
 ----------------------------------------------------------------

    7     -78.5468030950      2.67E-06 Convergence criterion met
    5     -78.5791076028      4.93E-06 Convergence criterion met
 Total energy in the final basis set = -78.57910760

                    Orbital Energies (a.u.)
 --------------------------------------------------------------

 Alpha MOs
 -- Occupied --
-10.2828 -10.2818  -0.8659  -0.6768  -0.5633  -0.5078  -0.4382  -0.3613

                    Cartesian Multipole Moments
 -----------------------------------------------------------------
    Charge (ESU x 10^10)
                 0.0000
    Dipole Moment (Debye)
         X      -0.0275      Y       0.0472      Z      -0.0385
       Tot       0.0668
    Quadrupole Moments (Debye-Ang)
        XX     -12.2828     XY       0.3173     YY     -13.0204
        XZ       0.9428     YZ      -1.4036     ZZ     -14.5258

 Total job time:  4.36s(wall), 22.92s(cpu)
        *  Thank you very much for using Q-Chem.  Have a nice day.  *
