 Q-Chem 5.3 (devel), Q-Chem, Inc., Pleasanton, CA (2020)
 Q-Chem 5.3.0 for Intel X86 EM64T Linux

User input:
--------------------------------------------------------------
$rem
   JOBTYPE  sp
   EXCHANGE   omegaB97X-D
   BASIS   6-311+G(2df,2pd)
   UNRESTRICTED   False
   max_scf_cycles   250
   geom_opt_max_cycles   1500
   basis2 6-31G*
   scf_algorithm rca_diis
   SYM_IGNORE  TRUE
   print_input   true
   geom_opt_dmax   80
   pop_mulliken false
   XC_GRID 000075000302
$end

$molecule
0 1
C       -4.5202100851     0.6834634451     0.2148752447
C       -3.3180212793     1.0267401713     -0.2148912556
H       -5.2731506410     0.8261776290     -0.5497088848
H       -4.5782835327     -0.3756743065     0.4316789391
H       -3.2599516952     2.0858849131     -0.4316610761
H       -2.5650927668     0.8840381482     0.5497070327
$end
--------------------------------------------------------------

             Standard Nuclear Orientation (Angstroms)
    I     Atom           X                Y                Z
 ----------------------------------------------------------------
    1      C      -4.5202100851     0.6834634451     0.2148752447
    2      C      -3.3180212793     1.0267401713    -0.2148912556
    3      H      -5.2731506410     0.8261776290    -0.5497088848
    4      H      -4.5782835327    -0.3756743065     0.4316789391
    5      H      -3.2599516952     2.0858849131    -0.4316610761
    6      H      -2.5650927668     0.8840381482     0.5497070327
 ----------------------------------------------------------------

    7     -78.4906804535      1.03E-06 Convergence criterion met
    5     -78.5225662307      6.79E-06 Convergence criterion met
 Total energy in the final basis set = -78.52256623

                    Orbital Energies (a.u.)
 --------------------------------------------------------------

 Alpha MOs
 -- Occupied --
-10.2873 -10.2864  -0.8849  -0.6818  -0.5527  -0.4886  -0.4109  -0.3835

                    Cartesian Multipole Moments
 -----------------------------------------------------------------
    Charge (ESU x 10^10)
                 0.0000
    Dipole Moment (Debye)
         X      -0.0002      Y       0.0000      Z       0.0002
       Tot       0.0003
    Quadrupole Moments (Debye-Ang)
        XX     -13.5119     XY       0.6803     YY     -13.1728
        XZ       1.0607     YZ      -0.4509     ZZ     -14.5012

 Total job time:  4.37s(wall), 22.99s(cpu)
        *  Thank you very much for using Q-Chem.  Have a nice day.  *
