 Q-Chem 5.3 (devel), Q-Chem, Inc., Pleasanton, CA (2020)
 Q-Chem 5.3.0 for Intel X86 EM64T Linux

User input:
--------------------------------------------------------------
$rem
   JOBTYPE  sp
   EXCHANGE   omegaB97X-D
   BASIS   6-311+G(2df,2pd)
   UNRESTRICTED   False
   max_scf_cycles   250
   geom_opt_max_cycles   1500
   basis2 6-31G*
   scf_algorithm rca_diis
   SYM_IGNORE  TRUE
   print_input   true
   geom_opt_dmax   80
   pop_mulliken false
   XC_GRID 000075000302
$end

$molecule
0 1
C       -4.4743095187     0.4972335471     0.0229542152
C       -3.3639273106     1.2129766373     -0.0229538583
H       -5.3198432731     0.8989444841     -0.5223934205
H       -4.6293132301     -0.4396398653     0.5411937196
H       -3.2089233376     2.1498495754     -0.5411941247
H       -2.5183933299     0.8112656214     0.5223934687
$end
--------------------------------------------------------------

             Standard Nuclear Orientation (Angstroms)
    I     Atom           X                Y                Z
 ----------------------------------------------------------------
    1      C      -4.4743095187     0.4972335471     0.0229542152
    2      C      -3.3639273106     1.2129766373    -0.0229538583
    3      H      -5.3198432731     0.8989444841    -0.5223934205
    4      H      -4.6293132301    -0.4396398653     0.5411937196
    5      H      -3.2089233376     2.1498495754    -0.5411941247
    6      H      -2.5183933299     0.8112656214     0.5223934687
 ----------------------------------------------------------------

    7     -78.5516068856      6.78E-07 Convergence criterion met
    5     -78.5836967818      4.90E-06 Convergence criterion met
 Total energy in the final basis set = -78.58369678

                    Orbital Energies (a.u.)
 --------------------------------------------------------------

 Alpha MOs
 -- Occupied --
-10.2831 -10.2821  -0.8656  -0.6749  -0.5617  -0.5123  -0.4343  -0.3613

                    Cartesian Multipole Moments
 -----------------------------------------------------------------
    Charge (ESU x 10^10)
                 0.0000
    Dipole Moment (Debye)
         X       0.0000      Y      -0.0000      Z      -0.0000
       Tot       0.0000
    Quadrupole Moments (Debye-Ang)
        XX     -12.8074     XY       0.7016     YY     -12.8034
        XZ       0.5761     YZ      -1.4926     ZZ     -14.5307

 Total job time:  4.31s(wall), 22.65s(cpu)
        *  Thank you very much for using Q-Chem.  Have a nice day.  *
