 Q-Chem 5.3 (devel), Q-Chem, Inc., Pleasanton, CA (2020)
 Q-Chem 5.3.0 for Intel X86 EM64T Linux

User input:
--------------------------------------------------------------
$rem
   JOBTYPE  sp
   EXCHANGE   omegaB97X-D
   BASIS   6-311+G(2df,2pd)
   UNRESTRICTED   False
   max_scf_cycles   250
   geom_opt_max_cycles   1500
   basis2 6-31G*
   scf_algorithm rca_diis
   SYM_IGNORE  TRUE
   print_input   true
   geom_opt_dmax   80
   pop_mulliken false
   XC_GRID 000075000302
$end

$molecule
0 1
C       -4.4475596648     0.4484143559     0.0613568548
C       -3.3032450613     1.1101400559     0.0614771223
H       -5.1259607594     1.0460864165     -0.5387916280
H       -4.8431813316     -0.4663307613     0.4775234359
H       -3.4795110933     1.9924077321     -0.5451552874
H       -2.3152520897     0.9999122009     0.4835895024
$end
--------------------------------------------------------------

             Standard Nuclear Orientation (Angstroms)
    I     Atom           X                Y                Z
 ----------------------------------------------------------------
    1      C      -4.4475596648     0.4484143559     0.0613568548
    2      C      -3.3032450613     1.1101400559     0.0614771223
    3      H      -5.1259607594     1.0460864165    -0.5387916280
    4      H      -4.8431813316    -0.4663307613     0.4775234359
    5      H      -3.4795110933     1.9924077321    -0.5451552874
    6      H      -2.3152520897     0.9999122009     0.4835895024
 ----------------------------------------------------------------

    7     -78.5352051794      1.19E-06 Convergence criterion met
    5     -78.5678879840      5.41E-06 Convergence criterion met
 Total energy in the final basis set = -78.56788798

                    Orbital Energies (a.u.)
 --------------------------------------------------------------

 Alpha MOs
 -- Occupied --
-10.2854 -10.2844  -0.8726  -0.6734  -0.5696  -0.5075  -0.4249  -0.3631

                    Cartesian Multipole Moments
 -----------------------------------------------------------------
    Charge (ESU x 10^10)
                 0.0000
    Dipole Moment (Debye)
         X      -0.0215      Y       0.0369      Z      -0.0282
       Tot       0.0511
    Quadrupole Moments (Debye-Ang)
        XX     -12.2539     XY       0.5152     YY     -13.1320
        XZ       0.8304     YZ      -1.2652     ZZ     -14.6050

 Total job time:  4.36s(wall), 22.90s(cpu)
        *  Thank you very much for using Q-Chem.  Have a nice day.  *
