 Q-Chem 5.3 (devel), Q-Chem, Inc., Pleasanton, CA (2020)
 Q-Chem 5.3.0 for Intel X86 EM64T Linux

User input:
--------------------------------------------------------------
$rem
   JOBTYPE  sp
   EXCHANGE   omegaB97X-D
   BASIS   6-311+G(2df,2pd)
   UNRESTRICTED   False
   max_scf_cycles   250
   geom_opt_max_cycles   1500
   basis2 6-31G*
   scf_algorithm rca_diis
   SYM_IGNORE  TRUE
   print_input   true
   geom_opt_dmax   80
   pop_mulliken false
   XC_GRID 000075000302
$end

$molecule
0 1
C       -4.5429568758     0.4943087704     0.0003419259
C       -3.3984512908     1.1557034576     -0.0000970299
H       -5.2810295915     0.8140136252     -0.4565979332
H       -4.6345125521     -0.3041606196     0.4564374476
H       -3.2582758533     2.2290384269     -0.6071404022
H       -2.3994838365     0.7417263396     0.6070559918
$end
--------------------------------------------------------------

             Standard Nuclear Orientation (Angstroms)
    I     Atom           X                Y                Z
 ----------------------------------------------------------------
    1      C      -4.5429568758     0.4943087704     0.0003419259
    2      C      -3.3984512908     1.1557034576    -0.0000970299
    3      H      -5.2810295915     0.8140136252    -0.4565979332
    4      H      -4.6345125521    -0.3041606196     0.4564374476
    5      H      -3.2582758533     2.2290384269    -0.6071404022
    6      H      -2.3994838365     0.7417263396     0.6070559918
 ----------------------------------------------------------------

    7     -78.4834522821      9.51E-06 Convergence criterion met
    6     -78.5182615732      7.68E-06 Convergence criterion met
 Total energy in the final basis set = -78.51826157

                    Orbital Energies (a.u.)
 --------------------------------------------------------------

 Alpha MOs
 -- Occupied --
-10.3127 -10.2496  -0.8743  -0.6799  -0.5770  -0.5051  -0.4313  -0.3625

                    Cartesian Multipole Moments
 -----------------------------------------------------------------
    Charge (ESU x 10^10)
                 0.0000
    Dipole Moment (Debye)
         X      -0.1559      Y      -0.0904      Z       0.0003
       Tot       0.1802
    Quadrupole Moments (Debye-Ang)
        XX     -11.2308     XY       0.7649     YY     -13.2317
        XZ       0.7846     YZ      -1.3599     ZZ     -14.5034

 Total job time:  4.70s(wall), 24.91s(cpu)
        *  Thank you very much for using Q-Chem.  Have a nice day.  *
