 Q-Chem 5.3 (devel), Q-Chem, Inc., Pleasanton, CA (2020)
 Q-Chem 5.3.0 for Intel X86 EM64T Linux

User input:
--------------------------------------------------------------
$rem
   JOBTYPE  sp
   EXCHANGE   omegaB97X-D
   BASIS   6-311+G(2df,2pd)
   UNRESTRICTED   False
   max_scf_cycles   250
   geom_opt_max_cycles   1500
   basis2 6-31G*
   scf_algorithm rca_diis
   SYM_IGNORE  TRUE
   print_input   true
   geom_opt_dmax   80
   pop_mulliken false
   XC_GRID 000075000302
$end

$molecule
0 1
C       -4.4800560632     0.5311226265     0.0003849760
C       -3.3581797407     1.1790861451     -0.0003870734
H       -5.3137687279     0.9439454876     -0.5478382870
H       -4.5384881945     -0.3978548940     0.5476888690
H       -3.2997490156     2.1080655724     -0.5476878790
H       -2.5244682582     0.7662650624     0.5478393944
$end
--------------------------------------------------------------

             Standard Nuclear Orientation (Angstroms)
    I     Atom           X                Y                Z
 ----------------------------------------------------------------
    1      C      -4.4800560632     0.5311226265     0.0003849760
    2      C      -3.3581797407     1.1790861451    -0.0003870734
    3      H      -5.3137687279     0.9439454876    -0.5478382870
    4      H      -4.5384881945    -0.3978548940     0.5476888690
    5      H      -3.2997490156     2.1080655724    -0.5476878790
    6      H      -2.5244682582     0.7662650624     0.5478393944
 ----------------------------------------------------------------

    7     -78.5504610689      7.24E-07 Convergence criterion met
    5     -78.5833332336      4.54E-06 Convergence criterion met
 Total energy in the final basis set = -78.58333323

                    Orbital Energies (a.u.)
 --------------------------------------------------------------

 Alpha MOs
 -- Occupied --
-10.2757 -10.2745  -0.8735  -0.6652  -0.5754  -0.4985  -0.4412  -0.3654

                    Cartesian Multipole Moments
 -----------------------------------------------------------------
    Charge (ESU x 10^10)
                 0.0000
    Dipole Moment (Debye)
         X      -0.0000      Y       0.0000      Z       0.0000
       Tot       0.0000
    Quadrupole Moments (Debye-Ang)
        XX     -12.8337     XY       0.1748     YY     -13.0318
        XZ       0.8509     YZ      -1.4714     ZZ     -14.3365

 Total job time:  4.39s(wall), 23.11s(cpu)
        *  Thank you very much for using Q-Chem.  Have a nice day.  *
