 Q-Chem 5.3 (devel), Q-Chem, Inc., Pleasanton, CA (2020)
 Q-Chem 5.3.0 for Intel X86 EM64T Linux

User input:
--------------------------------------------------------------
$rem
   JOBTYPE  sp
   EXCHANGE   omegaB97X-D
   BASIS   6-311+G(2df,2pd)
   UNRESTRICTED   False
   max_scf_cycles   250
   geom_opt_max_cycles   1500
   basis2 6-31G*
   scf_algorithm rca_diis
   SYM_IGNORE  TRUE
   print_input   true
   geom_opt_dmax   80
   pop_mulliken false
   XC_GRID 000075000302
$end

$molecule
0 1
C       -4.4913704873     0.5244062385     0.0002185548
C       -3.3468663940     1.1858040014     -0.0002181026
H       -5.3593071720     0.8921807099     -0.5321908950
H       -4.6061391046     -0.4114544652     0.5321543649
H       -3.2320974947     2.1216643106     -0.5321545484
H       -2.4789293474     0.8180292049     0.5321906263
$end
--------------------------------------------------------------

             Standard Nuclear Orientation (Angstroms)
    I     Atom           X                Y                Z
 ----------------------------------------------------------------
    1      C      -4.4913704873     0.5244062385     0.0002185548
    2      C      -3.3468663940     1.1858040014    -0.0002181026
    3      H      -5.3593071720     0.8921807099    -0.5321908950
    4      H      -4.6061391046    -0.4114544652     0.5321543649
    5      H      -3.2320974947     2.1216643106    -0.5321545484
    6      H      -2.4789293474     0.8180292049     0.5321906263
 ----------------------------------------------------------------

    7     -78.5545461716      6.81E-07 Convergence criterion met
    5     -78.5865542191      4.88E-06 Convergence criterion met
 Total energy in the final basis set = -78.58655422

                    Orbital Energies (a.u.)
 --------------------------------------------------------------

 Alpha MOs
 -- Occupied --
-10.2829 -10.2819  -0.8650  -0.6748  -0.5616  -0.5091  -0.4390  -0.3610

                    Cartesian Multipole Moments
 -----------------------------------------------------------------
    Charge (ESU x 10^10)
                -0.0000
    Dipole Moment (Debye)
         X       0.0000      Y      -0.0000      Z      -0.0000
       Tot       0.0000
    Quadrupole Moments (Debye-Ang)
        XX     -12.4921     XY       0.5330     YY     -13.1036
        XZ       0.7908     YZ      -1.3689     ZZ     -14.5310

 Total job time:  4.31s(wall), 22.73s(cpu)
        *  Thank you very much for using Q-Chem.  Have a nice day.  *
