 Q-Chem 5.3 (devel), Q-Chem, Inc., Pleasanton, CA (2020)
 Q-Chem 5.3.0 for Intel X86 EM64T Linux

User input:
--------------------------------------------------------------
$rem
   JOBTYPE  sp
   EXCHANGE   omegaB97X-D
   BASIS   6-311+G(2df,2pd)
   UNRESTRICTED   False
   max_scf_cycles   250
   geom_opt_max_cycles   1500
   basis2 6-31G*
   scf_algorithm rca_diis
   SYM_IGNORE  TRUE
   print_input   true
   geom_opt_dmax   80
   pop_mulliken false
   XC_GRID 000075000302
$end

$molecule
0 1
C       -4.5453922059     0.6760844740     -0.1120604382
C       -3.2928447978     1.0341257939     0.1120610016
H       -5.5038556111     0.8679476166     -0.5683836527
H       -4.4573192635     -0.2332206204     0.4757751139
H       -3.3809171624     1.9434306009     -0.4757751709
H       -2.3343809593     0.8422621350     0.5683831463
$end
--------------------------------------------------------------

             Standard Nuclear Orientation (Angstroms)
    I     Atom           X                Y                Z
 ----------------------------------------------------------------
    1      C      -4.5453922059     0.6760844740    -0.1120604382
    2      C      -3.2928447978     1.0341257939     0.1120610016
    3      H      -5.5038556111     0.8679476166    -0.5683836527
    4      H      -4.4573192635    -0.2332206204     0.4757751139
    5      H      -3.3809171624     1.9434306009    -0.4757751709
    6      H      -2.3343809593     0.8422621350     0.5683831463
 ----------------------------------------------------------------

    7     -78.4790522106      1.05E-06 Convergence criterion met
    5     -78.5130571535      5.48E-06 Convergence criterion met
 Total energy in the final basis set = -78.51305715

                    Orbital Energies (a.u.)
 --------------------------------------------------------------

 Alpha MOs
 -- Occupied --
-10.2880 -10.2870  -0.8821  -0.6759  -0.5667  -0.5503  -0.3672  -0.3615

                    Cartesian Multipole Moments
 -----------------------------------------------------------------
    Charge (ESU x 10^10)
                -0.0000
    Dipole Moment (Debye)
         X       0.0000      Y      -0.0000      Z      -0.0000
       Tot       0.0000
    Quadrupole Moments (Debye-Ang)
        XX     -11.3531     XY      -0.4626     YY     -14.6503
        XZ       1.7936     YZ      -0.7598     ZZ     -14.5246

 Total job time:  4.55s(wall), 24.04s(cpu)
        *  Thank you very much for using Q-Chem.  Have a nice day.  *
