 Q-Chem 5.3 (devel), Q-Chem, Inc., Pleasanton, CA (2020)
 Q-Chem 5.3.0 for Intel X86 EM64T Linux

User input:
--------------------------------------------------------------
$rem
   JOBTYPE  sp
   EXCHANGE   omegaB97X-D
   BASIS   6-311+G(2df,2pd)
   UNRESTRICTED   False
   max_scf_cycles   250
   geom_opt_max_cycles   1500
   basis2 6-31G*
   scf_algorithm rca_diis
   SYM_IGNORE  TRUE
   print_input   true
   geom_opt_dmax   80
   pop_mulliken false
   XC_GRID 000075000302
$end

$molecule
0 1
C       -4.5704962589     0.4790798950     0.0006607293
C       -3.4259771832     1.1404514045     0.0001749093
H       -5.3435429234     0.9673462439     -0.5730347621
H       -4.5328623200     -0.4355447844     0.5725614681
H       -3.1604207279     2.0774044833     -0.4799497558
H       -2.4814105866     0.9018927577     0.4795874112
$end
--------------------------------------------------------------

             Standard Nuclear Orientation (Angstroms)
    I     Atom           X                Y                Z
 ----------------------------------------------------------------
    1      C      -4.5704962589     0.4790798950     0.0006607293
    2      C      -3.4259771832     1.1404514045     0.0001749093
    3      H      -5.3435429234     0.9673462439    -0.5730347621
    4      H      -4.5328623200    -0.4355447844     0.5725614681
    5      H      -3.1604207279     2.0774044833    -0.4799497558
    6      H      -2.4814105866     0.9018927577     0.4795874112
 ----------------------------------------------------------------

    7     -78.5404689970      2.53E-06 Convergence criterion met
    6     -78.5730153701      7.05E-06 Convergence criterion met
 Total energy in the final basis set = -78.57301537

                    Orbital Energies (a.u.)
 --------------------------------------------------------------

 Alpha MOs
 -- Occupied --
-10.2854 -10.2810  -0.8673  -0.6795  -0.5663  -0.5060  -0.4288  -0.3619

                    Cartesian Multipole Moments
 -----------------------------------------------------------------
    Charge (ESU x 10^10)
                -0.0000
    Dipole Moment (Debye)
         X       0.1461      Y       0.0827      Z      -0.0020
       Tot       0.1679
    Quadrupole Moments (Debye-Ang)
        XX     -13.6957     XY       0.3333     YY     -13.0195
        XZ       0.7805     YZ      -1.3385     ZZ     -14.5621

 Total job time:  4.65s(wall), 24.70s(cpu)
        *  Thank you very much for using Q-Chem.  Have a nice day.  *
