 Q-Chem 5.3 (devel), Q-Chem, Inc., Pleasanton, CA (2020)
 Q-Chem 5.3.0 for Intel X86 EM64T Linux

User input:
--------------------------------------------------------------
$rem
   JOBTYPE  sp
   EXCHANGE   omegaB97X-D
   BASIS   6-311+G(2df,2pd)
   UNRESTRICTED   False
   max_scf_cycles   250
   geom_opt_max_cycles   1500
   basis2 6-31G*
   scf_algorithm rca_diis
   SYM_IGNORE  TRUE
   print_input   true
   geom_opt_dmax   80
   pop_mulliken false
   XC_GRID 000075000302
$end

$molecule
0 1
C       -4.4343119108     0.4467245613     0.0681240075
C       -3.4039247871     1.2634854613     -0.0681239156
H       -5.2311184049     0.9144542211     -0.5005385938
H       -4.6687379687     -0.4878264366     0.5567210289
H       -3.1694985434     2.1980358991     -0.5567218595
H       -2.6071183851     0.7957562939     0.5005393325
$end
--------------------------------------------------------------

             Standard Nuclear Orientation (Angstroms)
    I     Atom           X                Y                Z
 ----------------------------------------------------------------
    1      C      -4.4343119108     0.4467245613     0.0681240075
    2      C      -3.4039247871     1.2634854613    -0.0681239156
    3      H      -5.2311184049     0.9144542211    -0.5005385938
    4      H      -4.6687379687    -0.4878264366     0.5567210289
    5      H      -3.1694985434     2.1980358991    -0.5567218595
    6      H      -2.6071183851     0.7957562939     0.5005393325
 ----------------------------------------------------------------

    7     -78.5278422558      8.23E-07 Convergence criterion met
    5     -78.5605440376      5.01E-06 Convergence criterion met
 Total energy in the final basis set = -78.56054404

                    Orbital Energies (a.u.)
 --------------------------------------------------------------

 Alpha MOs
 -- Occupied --
-10.2847 -10.2837  -0.8706  -0.6752  -0.5629  -0.5299  -0.4050  -0.3631

                    Cartesian Multipole Moments
 -----------------------------------------------------------------
    Charge (ESU x 10^10)
                -0.0000
    Dipole Moment (Debye)
         X       0.0000      Y      -0.0000      Z      -0.0000
       Tot       0.0000
    Quadrupole Moments (Debye-Ang)
        XX     -13.4914     XY       0.9911     YY     -12.2419
        XZ       0.1553     YZ      -1.7297     ZZ     -14.5275

 Total job time:  4.34s(wall), 22.77s(cpu)
        *  Thank you very much for using Q-Chem.  Have a nice day.  *
