 Q-Chem 5.3 (devel), Q-Chem, Inc., Pleasanton, CA (2020)
 Q-Chem 5.3.0 for Intel X86 EM64T Linux

User input:
--------------------------------------------------------------
$rem
   JOBTYPE  sp
   EXCHANGE   omegaB97X-D
   BASIS   6-311+G(2df,2pd)
   UNRESTRICTED   False
   max_scf_cycles   250
   geom_opt_max_cycles   1500
   basis2 6-31G*
   scf_algorithm rca_diis
   SYM_IGNORE  TRUE
   print_input   true
   geom_opt_dmax   80
   pop_mulliken false
   XC_GRID 000075000302
$end

$molecule
0 1
C       -4.4737165020     0.4983342804     -0.0441068869
C       -3.3645241417     1.2118840895     0.0441197659
H       -5.3600995167     0.8994090722     -0.5190039933
H       -4.6087705289     -0.4012050344     0.5428469963
H       -3.2294633633     2.1114096377     -0.5428538917
H       -2.4781359475     0.8107979546     0.5189980097
$end
--------------------------------------------------------------

             Standard Nuclear Orientation (Angstroms)
    I     Atom           X                Y                Z
 ----------------------------------------------------------------
    1      C      -4.4737165020     0.4983342804    -0.0441068869
    2      C      -3.3645241417     1.2118840895     0.0441197659
    3      H      -5.3600995167     0.8994090722    -0.5190039933
    4      H      -4.6087705289    -0.4012050344     0.5428469963
    5      H      -3.2294633633     2.1114096377    -0.5428538917
    6      H      -2.4781359475     0.8107979546     0.5189980097
 ----------------------------------------------------------------

    7     -78.5522610049      7.03E-07 Convergence criterion met
    5     -78.5842298337      4.96E-06 Convergence criterion met
 Total energy in the final basis set = -78.58422983

                    Orbital Energies (a.u.)
 --------------------------------------------------------------

 Alpha MOs
 -- Occupied --
-10.2830 -10.2820  -0.8658  -0.6749  -0.5614  -0.5080  -0.4380  -0.3620

                    Cartesian Multipole Moments
 -----------------------------------------------------------------
    Charge (ESU x 10^10)
                -0.0000
    Dipole Moment (Debye)
         X      -0.0000      Y      -0.0000      Z      -0.0000
       Tot       0.0000
    Quadrupole Moments (Debye-Ang)
        XX     -12.4389     XY       0.4724     YY     -13.2087
        XZ       0.6573     YZ      -1.4194     ZZ     -14.5272

 Total job time:  4.27s(wall), 22.59s(cpu)
        *  Thank you very much for using Q-Chem.  Have a nice day.  *
