 Q-Chem 5.3 (devel), Q-Chem, Inc., Pleasanton, CA (2020)
 Q-Chem 5.3.0 for Intel X86 EM64T Linux

User input:
--------------------------------------------------------------
$rem
   JOBTYPE  sp
   EXCHANGE   omegaB97X-D
   BASIS   6-311+G(2df,2pd)
   UNRESTRICTED   False
   max_scf_cycles   250
   geom_opt_max_cycles   1500
   basis2 6-31G*
   scf_algorithm rca_diis
   SYM_IGNORE  TRUE
   print_input   true
   geom_opt_dmax   80
   pop_mulliken false
   XC_GRID 000075000302
$end

$molecule
0 1
C       -4.4480482253     0.5493370556     0.0001289956
C       -3.3901981670     1.1608898009     -0.0001014601
H       -5.3608576157     0.8320959466     -0.4959388327
H       -4.6589934416     -0.3827765982     0.4959428278
H       -3.1792416740     2.0929838138     -0.4959473843
H       -2.4773708765     0.8780999815     0.4959158536
$end
--------------------------------------------------------------

             Standard Nuclear Orientation (Angstroms)
    I     Atom           X                Y                Z
 ----------------------------------------------------------------
    1      C      -4.4480482253     0.5493370556     0.0001289956
    2      C      -3.3901981670     1.1608898009    -0.0001014601
    3      H      -5.3608576157     0.8320959466    -0.4959388327
    4      H      -4.6589934416    -0.3827765982     0.4959428278
    5      H      -3.1792416740     2.0929838138    -0.4959473843
    6      H      -2.4773708765     0.8780999815     0.4959158536
 ----------------------------------------------------------------

    7     -78.5337089658      8.96E-07 Convergence criterion met
    5     -78.5684220228      5.73E-06 Convergence criterion met
 Total energy in the final basis set = -78.56842202

                    Orbital Energies (a.u.)
 --------------------------------------------------------------

 Alpha MOs
 -- Occupied --
-10.2666 -10.2645  -0.8846  -0.6795  -0.5555  -0.5423  -0.4119  -0.3798

                    Cartesian Multipole Moments
 -----------------------------------------------------------------
    Charge (ESU x 10^10)
                -0.0000
    Dipole Moment (Debye)
         X       0.0000      Y      -0.0000      Z      -0.0001
       Tot       0.0001
    Quadrupole Moments (Debye-Ang)
        XX     -12.0889     XY       0.8715     YY     -13.0906
        XZ       0.5472     YZ      -0.9477     ZZ     -14.3691

 Total job time:  4.32s(wall), 22.80s(cpu)
        *  Thank you very much for using Q-Chem.  Have a nice day.  *
