 Q-Chem 5.3 (devel), Q-Chem, Inc., Pleasanton, CA (2020)
 Q-Chem 5.3.0 for Intel X86 EM64T Linux

User input:
--------------------------------------------------------------
$rem
   JOBTYPE  sp
   EXCHANGE   omegaB97X-D
   BASIS   6-311+G(2df,2pd)
   UNRESTRICTED   False
   max_scf_cycles   250
   geom_opt_max_cycles   1500
   basis2 6-31G*
   scf_algorithm rca_diis
   SYM_IGNORE  TRUE
   print_input   true
   geom_opt_dmax   80
   pop_mulliken false
   XC_GRID 000075000302
$end

$molecule
0 1
C       -4.3732580749     0.5921307556     -0.0003510828
C       -3.2287196276     1.2534694236     -0.0008987206
H       -5.3487223100     0.7636612114     -0.4492023104
H       -4.7125753678     -0.3377525283     0.4497476364
H       -3.3421286895     2.1500873562     -0.5880773907
H       -2.5093059302     0.7090337816     0.5887818681
$end
--------------------------------------------------------------

             Standard Nuclear Orientation (Angstroms)
    I     Atom           X                Y                Z
 ----------------------------------------------------------------
    1      C      -4.3732580749     0.5921307556    -0.0003510828
    2      C      -3.2287196276     1.2534694236    -0.0008987206
    3      H      -5.3487223100     0.7636612114    -0.4492023104
    4      H      -4.7125753678    -0.3377525283     0.4497476364
    5      H      -3.3421286895     2.1500873562    -0.5880773907
    6      H      -2.5093059302     0.7090337816     0.5887818681
 ----------------------------------------------------------------

    7     -78.5226701819      3.02E-06 Convergence criterion met
    6     -78.5559140726      6.13E-06 Convergence criterion met
 Total energy in the final basis set = -78.55591407

                    Orbital Energies (a.u.)
 --------------------------------------------------------------

 Alpha MOs
 -- Occupied --
-10.2873 -10.2809  -0.8704  -0.6855  -0.5714  -0.5022  -0.4170  -0.3631

                    Cartesian Multipole Moments
 -----------------------------------------------------------------
    Charge (ESU x 10^10)
                -0.0000
    Dipole Moment (Debye)
         X      -0.2298      Y      -0.1302      Z       0.0030
       Tot       0.2641
    Quadrupole Moments (Debye-Ang)
        XX     -10.8220     XY       0.8458     YY     -13.4564
        XZ       0.7380     YZ      -1.2935     ZZ     -14.6014

 Total job time:  4.72s(wall), 25.02s(cpu)
        *  Thank you very much for using Q-Chem.  Have a nice day.  *
