 Q-Chem 5.3 (devel), Q-Chem, Inc., Pleasanton, CA (2020)
 Q-Chem 5.3.0 for Intel X86 EM64T Linux

User input:
--------------------------------------------------------------
$rem
   JOBTYPE  sp
   EXCHANGE   omegaB97X-D
   BASIS   6-311+G(2df,2pd)
   UNRESTRICTED   False
   max_scf_cycles   250
   geom_opt_max_cycles   1500
   basis2 6-31G*
   scf_algorithm rca_diis
   SYM_IGNORE  TRUE
   print_input   true
   geom_opt_dmax   80
   pop_mulliken false
   XC_GRID 000075000302
$end

$molecule
0 1
C       -4.4461543502     0.5513455183     0.0010183946
C       -3.3920728240     1.1588496901     -0.0010431883
H       -5.1639066347     1.0900281021     -0.5845084842
H       -4.3368716054     -0.3410014685     0.5839409636
H       -3.5013700710     2.0512191012     -0.5839287755
H       -2.6743345147     0.6201890570     0.5845210896
$end
--------------------------------------------------------------

             Standard Nuclear Orientation (Angstroms)
    I     Atom           X                Y                Z
 ----------------------------------------------------------------
    1      C      -4.4461543502     0.5513455183     0.0010183946
    2      C      -3.3920728240     1.1588496901    -0.0010431883
    3      H      -5.1639066347     1.0900281021    -0.5845084842
    4      H      -4.3368716054    -0.3410014685     0.5839409636
    5      H      -3.5013700710     2.0512191012    -0.5839287755
    6      H      -2.6743345147     0.6201890570     0.5845210896
 ----------------------------------------------------------------

    7     -78.4939322186      1.10E-06 Convergence criterion met
    5     -78.5311737179      4.39E-06 Convergence criterion met
 Total energy in the final basis set = -78.53117372

                    Orbital Energies (a.u.)
 --------------------------------------------------------------

 Alpha MOs
 -- Occupied --
-10.2562 -10.2539  -0.9073  -0.6340  -0.6220  -0.4679  -0.4367  -0.3829

                    Cartesian Multipole Moments
 -----------------------------------------------------------------
    Charge (ESU x 10^10)
                -0.0000
    Dipole Moment (Debye)
         X      -0.0000      Y       0.0000      Z       0.0001
       Tot       0.0001
    Quadrupole Moments (Debye-Ang)
        XX     -13.8229     XY      -0.7793     YY     -12.9190
        XZ       0.9639     YZ      -1.6608     ZZ     -13.8293

 Total job time:  4.69s(wall), 24.72s(cpu)
        *  Thank you very much for using Q-Chem.  Have a nice day.  *
