 Q-Chem 5.3 (devel), Q-Chem, Inc., Pleasanton, CA (2020)
 Q-Chem 5.3.0 for Intel X86 EM64T Linux

User input:
--------------------------------------------------------------
$rem
   JOBTYPE  sp
   EXCHANGE   omegaB97X-D
   BASIS   6-311+G(2df,2pd)
   UNRESTRICTED   False
   max_scf_cycles   250
   geom_opt_max_cycles   1500
   basis2 6-31G*
   scf_algorithm rca_diis
   SYM_IGNORE  TRUE
   print_input   true
   geom_opt_dmax   80
   pop_mulliken false
   XC_GRID 000075000302
$end

$molecule
0 1
C       -4.4819079962     0.5299921140     0.0001702714
C       -3.3563304325     1.1802219469     -0.0001643535
H       -5.4380816581     0.9263231310     -0.5809644172
H       -4.6161971111     -0.4974176950     0.5812019612
H       -3.2220383232     2.2076246653     -0.5812041379
H       -2.4001544789     0.7838858378     0.5809606761
$end
--------------------------------------------------------------

             Standard Nuclear Orientation (Angstroms)
    I     Atom           X                Y                Z
 ----------------------------------------------------------------
    1      C      -4.4819079962     0.5299921140     0.0001702714
    2      C      -3.3563304325     1.1802219469    -0.0001643535
    3      H      -5.4380816581     0.9263231310    -0.5809644172
    4      H      -4.6161971111    -0.4974176950     0.5812019612
    5      H      -3.2220383232     2.2076246653    -0.5812041379
    6      H      -2.4001544789     0.7838858378     0.5809606761
 ----------------------------------------------------------------

    7     -78.5318419127      1.03E-06 Convergence criterion met
    5     -78.5628057346      5.26E-06 Convergence criterion met
 Total energy in the final basis set = -78.56280573

                    Orbital Energies (a.u.)
 --------------------------------------------------------------

 Alpha MOs
 -- Occupied --
-10.3023 -10.3011  -0.8617  -0.6445  -0.5413  -0.5029  -0.4154  -0.3672

                    Cartesian Multipole Moments
 -----------------------------------------------------------------
    Charge (ESU x 10^10)
                 0.0000
    Dipole Moment (Debye)
         X       0.0000      Y      -0.0000      Z      -0.0000
       Tot       0.0000
    Quadrupole Moments (Debye-Ang)
        XX     -12.7251     XY       0.4719     YY     -13.2672
        XZ       0.8821     YZ      -1.5262     ZZ     -14.7876

 Total job time:  4.28s(wall), 22.61s(cpu)
        *  Thank you very much for using Q-Chem.  Have a nice day.  *
