 Q-Chem 5.3 (devel), Q-Chem, Inc., Pleasanton, CA (2020)
 Q-Chem 5.3.0 for Intel X86 EM64T Linux

User input:
--------------------------------------------------------------
$rem
   JOBTYPE  sp
   EXCHANGE   omegaB97X-D
   BASIS   6-311+G(2df,2pd)
   UNRESTRICTED   False
   max_scf_cycles   250
   geom_opt_max_cycles   1500
   basis2 6-31G*
   scf_algorithm rca_diis
   SYM_IGNORE  TRUE
   print_input   true
   geom_opt_dmax   80
   pop_mulliken false
   XC_GRID 000075000302
$end

$molecule
0 1
C       -4.5172579363     0.5689831269     -0.0362393706
C       -3.3727532109     1.2303798516     -0.0366766965
H       -5.3018945669     0.8956776469     -0.5139698423
H       -4.6367204818     -0.4589829345     0.5503914434
H       -3.2638784977     2.0740341892     -0.5142800717
H       -2.4222053065     0.8205381200     0.5507745376
$end
--------------------------------------------------------------

             Standard Nuclear Orientation (Angstroms)
    I     Atom           X                Y                Z
 ----------------------------------------------------------------
    1      C      -4.5172579363     0.5689831269    -0.0362393706
    2      C      -3.3727532109     1.2303798516    -0.0366766965
    3      H      -5.3018945669     0.8956776469    -0.5139698423
    4      H      -4.6367204818    -0.4589829345     0.5503914434
    5      H      -3.2638784977     2.0740341892    -0.5142800717
    6      H      -2.4222053065     0.8205381200     0.5507745376
 ----------------------------------------------------------------

    7     -78.5229079805      4.85E-06 Convergence criterion met
    5     -78.5561422647      5.05E-06 Convergence criterion met
 Total energy in the final basis set = -78.55614226

                    Orbital Energies (a.u.)
 --------------------------------------------------------------

 Alpha MOs
 -- Occupied --
-10.2825 -10.2815  -0.8688  -0.6827  -0.5680  -0.5042  -0.4359  -0.3619

                    Cartesian Multipole Moments
 -----------------------------------------------------------------
    Charge (ESU x 10^10)
                 0.0000
    Dipole Moment (Debye)
         X      -0.0541      Y       0.0927      Z      -0.0758
       Tot       0.1314
    Quadrupole Moments (Debye-Ang)
        XX     -12.0911     XY       0.0951     YY     -12.9348
        XZ       1.0917     YZ      -1.4406     ZZ     -14.5101

 Total job time:  4.36s(wall), 22.97s(cpu)
        *  Thank you very much for using Q-Chem.  Have a nice day.  *
