 Q-Chem 5.3 (devel), Q-Chem, Inc., Pleasanton, CA (2020)
 Q-Chem 5.3.0 for Intel X86 EM64T Linux

User input:
--------------------------------------------------------------
$rem
   JOBTYPE  sp
   EXCHANGE   omegaB97X-D
   BASIS   6-311+G(2df,2pd)
   UNRESTRICTED   False
   max_scf_cycles   250
   geom_opt_max_cycles   1500
   basis2 6-31G*
   scf_algorithm rca_diis
   SYM_IGNORE  TRUE
   print_input   true
   geom_opt_dmax   80
   pop_mulliken false
   XC_GRID 000075000302
$end

$molecule
0 1
C       -4.4697071840     0.5368678809     0.0001683876
C       -3.3685334629     1.1733489580     -0.0001571814
H       -5.3611599479     0.8623968660     -0.5145922559
H       -4.6328825156     -0.3981774157     0.5145799688
H       -3.2053494192     2.1083791498     -0.5145934362
H       -2.4770774704     0.8478145611     0.5145945171
$end
--------------------------------------------------------------

             Standard Nuclear Orientation (Angstroms)
    I     Atom           X                Y                Z
 ----------------------------------------------------------------
    1      C      -4.4697071840     0.5368678809     0.0001683876
    2      C      -3.3685334629     1.1733489580    -0.0001571814
    3      H      -5.3611599479     0.8623968660    -0.5145922559
    4      H      -4.6328825156    -0.3981774157     0.5145799688
    5      H      -3.2053494192     2.1083791498    -0.5145934362
    6      H      -2.4770774704     0.8478145611     0.5145945171
 ----------------------------------------------------------------

    7     -78.5493272508      7.43E-07 Convergence criterion met
    5     -78.5823568054      5.29E-06 Convergence criterion met
 Total energy in the final basis set = -78.58235681

                    Orbital Energies (a.u.)
 --------------------------------------------------------------

 Alpha MOs
 -- Occupied --
-10.2749 -10.2734  -0.8746  -0.6769  -0.5584  -0.5258  -0.4261  -0.3700

                    Cartesian Multipole Moments
 -----------------------------------------------------------------
    Charge (ESU x 10^10)
                 0.0000
    Dipole Moment (Debye)
         X       0.0000      Y      -0.0000      Z      -0.0000
       Tot       0.0000
    Quadrupole Moments (Debye-Ang)
        XX     -12.2857     XY       0.7045     YY     -13.0948
        XZ       0.6702     YZ      -1.1605     ZZ     -14.4507

 Total job time:  4.27s(wall), 22.64s(cpu)
        *  Thank you very much for using Q-Chem.  Have a nice day.  *
