 Q-Chem 5.3 (devel), Q-Chem, Inc., Pleasanton, CA (2020)
 Q-Chem 5.3.0 for Intel X86 EM64T Linux

User input:
--------------------------------------------------------------
$rem
   JOBTYPE  sp
   EXCHANGE   omegaB97X-D
   BASIS   6-311+G(2df,2pd)
   UNRESTRICTED   False
   max_scf_cycles   250
   geom_opt_max_cycles   1500
   basis2 6-31G*
   scf_algorithm rca_diis
   SYM_IGNORE  TRUE
   print_input   true
   geom_opt_dmax   80
   pop_mulliken false
   XC_GRID 000075000302
$end

$molecule
0 1
C       -4.5063538604     0.5524974095     -0.0222953181
C       -3.3318827068     1.1577119051     0.0222963709
H       -5.2346498949     0.8793877678     -0.4802498887
H       -4.6611394610     -0.5236066259     0.5813396905
H       -3.1770966060     2.2338176555     -0.5813404379
H       -2.6035874709     0.8308218881     0.4802495833
$end
--------------------------------------------------------------

             Standard Nuclear Orientation (Angstroms)
    I     Atom           X                Y                Z
 ----------------------------------------------------------------
    1      C      -4.5063538604     0.5524974095    -0.0222953181
    2      C      -3.3318827068     1.1577119051     0.0222963709
    3      H      -5.2346498949     0.8793877678    -0.4802498887
    4      H      -4.6611394610    -0.5236066259     0.5813396905
    5      H      -3.1770966060     2.2338176555    -0.5813404379
    6      H      -2.6035874709     0.8308218881     0.4802495833
 ----------------------------------------------------------------

    7     -78.4807322501      7.90E-07 Convergence criterion met
    5     -78.5157861572      5.00E-06 Convergence criterion met
 Total energy in the final basis set = -78.51578616

                    Orbital Energies (a.u.)
 --------------------------------------------------------------

 Alpha MOs
 -- Occupied --
-10.2824 -10.2814  -0.8717  -0.7001  -0.5481  -0.5283  -0.4271  -0.3632

                    Cartesian Multipole Moments
 -----------------------------------------------------------------
    Charge (ESU x 10^10)
                 0.0000
    Dipole Moment (Debye)
         X      -0.0000      Y      -0.0000      Z      -0.0000
       Tot       0.0000
    Quadrupole Moments (Debye-Ang)
        XX     -12.4682     XY       0.4352     YY     -13.2079
        XZ       0.8483     YZ      -1.3212     ZZ     -14.5095

 Total job time:  4.37s(wall), 22.85s(cpu)
        *  Thank you very much for using Q-Chem.  Have a nice day.  *
