 Q-Chem 5.3 (devel), Q-Chem, Inc., Pleasanton, CA (2020)
 Q-Chem 5.3.0 for Intel X86 EM64T Linux

User input:
--------------------------------------------------------------
$rem
   JOBTYPE  sp
   EXCHANGE   omegaB97X-D
   BASIS   6-311+G(2df,2pd)
   UNRESTRICTED   False
   max_scf_cycles   250
   geom_opt_max_cycles   1500
   basis2 6-31G*
   scf_algorithm rca_diis
   SYM_IGNORE  TRUE
   print_input   true
   geom_opt_dmax   80
   pop_mulliken false
   XC_GRID 000075000302
$end

$molecule
0 1
C       -4.4023012675     0.3669241765     -0.2607928415
C       -3.2557402378     1.0247433279     -0.2578897682
H       -5.2681063724     1.0093794234     -0.3598819267
H       -4.5521775175     -0.2397832264     0.6231079308
H       -3.3650881714     2.0942517599     -0.3854944599
H       -2.6712964335     0.8751145388     0.6409510654
$end
--------------------------------------------------------------

             Standard Nuclear Orientation (Angstroms)
    I     Atom           X                Y                Z
 ----------------------------------------------------------------
    1      C      -4.4023012675     0.3669241765    -0.2607928415
    2      C      -3.2557402378     1.0247433279    -0.2578897682
    3      H      -5.2681063724     1.0093794234    -0.3598819267
    4      H      -4.5521775175    -0.2397832264     0.6231079308
    5      H      -3.3650881714     2.0942517599    -0.3854944599
    6      H      -2.6712964335     0.8751145388     0.6409510654
 ----------------------------------------------------------------

    7     -78.4939569583      5.28E-06 Convergence criterion met
    5     -78.5272237873      9.81E-06 Convergence criterion met
 Total energy in the final basis set = -78.52722379

                    Orbital Energies (a.u.)
 --------------------------------------------------------------

 Alpha MOs
 -- Occupied --
-10.2866 -10.2856  -0.8829  -0.6702  -0.5593  -0.5126  -0.4164  -0.3641

                    Cartesian Multipole Moments
 -----------------------------------------------------------------
    Charge (ESU x 10^10)
                -0.0000
    Dipole Moment (Debye)
         X      -0.3622      Y       0.6425      Z       1.0424
       Tot       1.2769
    Quadrupole Moments (Debye-Ang)
        XX     -11.0607     XY      -2.9326     YY     -12.6296
        XZ      -3.5814     YZ      -0.0176     ZZ     -14.4139

 Total job time:  4.40s(wall), 23.18s(cpu)
        *  Thank you very much for using Q-Chem.  Have a nice day.  *
