 Q-Chem 5.3 (devel), Q-Chem, Inc., Pleasanton, CA (2020)
 Q-Chem 5.3.0 for Intel X86 EM64T Linux

User input:
--------------------------------------------------------------
$rem
   JOBTYPE  sp
   EXCHANGE   omegaB97X-D
   BASIS   6-311+G(2df,2pd)
   UNRESTRICTED   False
   max_scf_cycles   250
   geom_opt_max_cycles   1500
   basis2 6-31G*
   scf_algorithm rca_diis
   SYM_IGNORE  TRUE
   print_input   true
   geom_opt_dmax   80
   pop_mulliken false
   XC_GRID 000075000302
$end

$molecule
0 1
C       -4.5366895738     0.4976482324     -0.0002499999
C       -3.3015505040     1.2125663024     0.0002579162
H       -5.5164131650     0.6731934799     -0.4535109973
H       -4.8745182912     -0.4382190556     0.4538118858
H       -2.9637147590     2.1484234545     -0.4538195508
H       -2.3218237071     1.0370175866     0.4535107461
$end
--------------------------------------------------------------

             Standard Nuclear Orientation (Angstroms)
    I     Atom           X                Y                Z
 ----------------------------------------------------------------
    1      C      -4.5366895738     0.4976482324    -0.0002499999
    2      C      -3.3015505040     1.2125663024     0.0002579162
    3      H      -5.5164131650     0.6731934799    -0.4535109973
    4      H      -4.8745182912    -0.4382190556     0.4538118858
    5      H      -2.9637147590     2.1484234545    -0.4538195508
    6      H      -2.3218237071     1.0370175866     0.4535107461
 ----------------------------------------------------------------

    7     -78.5063188921      5.78E-07 Convergence criterion met
    5     -78.5379387989      6.91E-06 Convergence criterion met
 Total energy in the final basis set = -78.53793880

                    Orbital Energies (a.u.)
 --------------------------------------------------------------

 Alpha MOs
 -- Occupied --
-10.3127 -10.3122  -0.8413  -0.7140  -0.5514  -0.5078  -0.4141  -0.3481

                    Cartesian Multipole Moments
 -----------------------------------------------------------------
    Charge (ESU x 10^10)
                -0.0000
    Dipole Moment (Debye)
         X       0.0000      Y      -0.0000      Z      -0.0000
       Tot       0.0000
    Quadrupole Moments (Debye-Ang)
        XX     -11.0660     XY       2.1364     YY     -13.5275
        XZ       0.4601     YZ      -0.8007     ZZ     -15.4158

 Total job time:  4.22s(wall), 22.21s(cpu)
        *  Thank you very much for using Q-Chem.  Have a nice day.  *
