 Q-Chem 5.3 (devel), Q-Chem, Inc., Pleasanton, CA (2020)
 Q-Chem 5.3.0 for Intel X86 EM64T Linux

User input:
--------------------------------------------------------------
$rem
   JOBTYPE  sp
   EXCHANGE   omegaB97X-D
   BASIS   6-311+G(2df,2pd)
   UNRESTRICTED   False
   max_scf_cycles   250
   geom_opt_max_cycles   1500
   basis2 6-31G*
   scf_algorithm rca_diis
   SYM_IGNORE  TRUE
   print_input   true
   geom_opt_dmax   80
   pop_mulliken false
   XC_GRID 000075000302
$end

$molecule
0 1
C       -4.4933062115     0.5277023432     0.0051676685
C       -3.3493645271     1.1900700139     0.0033494453
H       -5.4221826463     0.9930187982     -0.2995039659
H       -4.5418005524     -0.5145597040     0.2938452855
H       -3.1379847103     1.9622753535     -0.7253113080
H       -2.5700713524     0.9721231953     0.7224528746
$end
--------------------------------------------------------------

             Standard Nuclear Orientation (Angstroms)
    I     Atom           X                Y                Z
 ----------------------------------------------------------------
    1      C      -4.4933062115     0.5277023432     0.0051676685
    2      C      -3.3493645271     1.1900700139     0.0033494453
    3      H      -5.4221826463     0.9930187982    -0.2995039659
    4      H      -4.5418005524    -0.5145597040     0.2938452855
    5      H      -3.1379847103     1.9622753535    -0.7253113080
    6      H      -2.5700713524     0.9721231953     0.7224528746
 ----------------------------------------------------------------

    7     -78.5320555781      1.26E-06 Convergence criterion met
    5     -78.5646054942      5.38E-06 Convergence criterion met
 Total energy in the final basis set = -78.56460549

                    Orbital Energies (a.u.)
 --------------------------------------------------------------

 Alpha MOs
 -- Occupied --
-10.2838 -10.2828  -0.8664  -0.6756  -0.5570  -0.5101  -0.4617  -0.3349

                    Cartesian Multipole Moments
 -----------------------------------------------------------------
    Charge (ESU x 10^10)
                 0.0000
    Dipole Moment (Debye)
         X       0.0086      Y      -0.0147      Z      -0.0231
       Tot       0.0287
    Quadrupole Moments (Debye-Ang)
        XX     -12.7152     XY       0.5926     YY     -13.3007
        XZ       0.6949     YZ      -1.0581     ZZ     -14.4259

 Total job time:  4.34s(wall), 22.89s(cpu)
        *  Thank you very much for using Q-Chem.  Have a nice day.  *
