 Q-Chem 5.3 (devel), Q-Chem, Inc., Pleasanton, CA (2020)
 Q-Chem 5.3.0 for Intel X86 EM64T Linux

User input:
--------------------------------------------------------------
$rem
   JOBTYPE  sp
   EXCHANGE   omegaB97X-D
   BASIS   6-311+G(2df,2pd)
   UNRESTRICTED   False
   max_scf_cycles   250
   geom_opt_max_cycles   1500
   basis2 6-31G*
   scf_algorithm rca_diis
   SYM_IGNORE  TRUE
   print_input   true
   geom_opt_dmax   80
   pop_mulliken false
   XC_GRID 000075000302
$end

$molecule
0 1
C       -4.4537416800     0.4581783221     -0.1084718453
C       -3.3089268997     1.1190382578     -0.1083526724
H       -5.3564262314     0.9350439051     -0.4688235446
H       -4.6057262465     -0.3650929054     0.5778500843
H       -3.2657293445     2.1354403135     -0.4785874599
H       -2.5241595979     0.8480221071     0.5863854379
$end
--------------------------------------------------------------

             Standard Nuclear Orientation (Angstroms)
    I     Atom           X                Y                Z
 ----------------------------------------------------------------
    1      C      -4.4537416800     0.4581783221    -0.1084718453
    2      C      -3.3089268997     1.1190382578    -0.1083526724
    3      H      -5.3564262314     0.9350439051    -0.4688235446
    4      H      -4.6057262465    -0.3650929054     0.5778500843
    5      H      -3.2657293445     2.1354403135    -0.4785874599
    6      H      -2.5241595979     0.8480221071     0.5863854379
 ----------------------------------------------------------------

    7     -78.5451394033      2.93E-06 Convergence criterion met
    5     -78.5773182455      6.16E-06 Convergence criterion met
 Total energy in the final basis set = -78.57731825

                    Orbital Energies (a.u.)
 --------------------------------------------------------------

 Alpha MOs
 -- Occupied --
-10.2834 -10.2824  -0.8677  -0.6739  -0.5614  -0.5090  -0.4357  -0.3616

                    Cartesian Multipole Moments
 -----------------------------------------------------------------
    Charge (ESU x 10^10)
                -0.0000
    Dipole Moment (Debye)
         X      -0.1668      Y       0.2902      Z       0.4734
       Tot       0.5798
    Quadrupole Moments (Debye-Ang)
        XX     -11.4440     XY      -0.8708     YY     -12.7143
        XZ      -1.1086     YZ      -0.8939     ZZ     -14.5097

 Total job time:  4.34s(wall), 22.79s(cpu)
        *  Thank you very much for using Q-Chem.  Have a nice day.  *
