 Q-Chem 5.3 (devel), Q-Chem, Inc., Pleasanton, CA (2020)
 Q-Chem 5.3.0 for Intel X86 EM64T Linux

User input:
--------------------------------------------------------------
$rem
   JOBTYPE  sp
   EXCHANGE   omegaB97X-D
   BASIS   6-311+G(2df,2pd)
   UNRESTRICTED   False
   max_scf_cycles   250
   geom_opt_max_cycles   1500
   basis2 6-31G*
   scf_algorithm rca_diis
   SYM_IGNORE  TRUE
   print_input   true
   geom_opt_dmax   80
   pop_mulliken false
   XC_GRID 000075000302
$end

$molecule
0 1
C       -4.5008297961     0.5188149175     0.0002727274
C       -3.3374064898     1.1913931858     -0.0002750043
H       -5.2812846401     0.8567910674     -0.4829208830
H       -4.5975464665     -0.3255323088     0.4826126407
H       -3.2406908284     2.0357441980     -0.4826122145
H       -2.5569517791     0.8534189402     0.4829227337
$end
--------------------------------------------------------------

             Standard Nuclear Orientation (Angstroms)
    I     Atom           X                Y                Z
 ----------------------------------------------------------------
    1      C      -4.5008297961     0.5188149175     0.0002727274
    2      C      -3.3374064898     1.1913931858    -0.0002750043
    3      H      -5.2812846401     0.8567910674    -0.4829208830
    4      H      -4.5975464665    -0.3255323088     0.4826126407
    5      H      -3.2406908284     2.0357441980    -0.4826122145
    6      H      -2.5569517791     0.8534189402     0.4829227337
 ----------------------------------------------------------------

    8     -78.5157612935      1.48E-07 Convergence criterion met
    5     -78.5512751535      4.77E-06 Convergence criterion met
 Total energy in the final basis set = -78.55127515

                    Orbital Energies (a.u.)
 --------------------------------------------------------------

 Alpha MOs
 -- Occupied --
-10.2612 -10.2603  -0.8734  -0.7085  -0.5847  -0.5141  -0.4660  -0.3558

                    Cartesian Multipole Moments
 -----------------------------------------------------------------
    Charge (ESU x 10^10)
                -0.0000
    Dipole Moment (Debye)
         X      -0.0000      Y       0.0000      Z       0.0000
       Tot       0.0000
    Quadrupole Moments (Debye-Ang)
        XX     -12.2089     XY       0.5960     YY     -12.8932
        XZ       0.7051     YZ      -1.2208     ZZ     -14.2360

 Total job time:  4.54s(wall), 23.99s(cpu)
        *  Thank you very much for using Q-Chem.  Have a nice day.  *
