 Q-Chem 5.3 (devel), Q-Chem, Inc., Pleasanton, CA (2020)
 Q-Chem 5.3.0 for Intel X86 EM64T Linux

User input:
--------------------------------------------------------------
$rem
   JOBTYPE  sp
   EXCHANGE   omegaB97X-D
   BASIS   6-311+G(2df,2pd)
   UNRESTRICTED   False
   max_scf_cycles   250
   geom_opt_max_cycles   1500
   basis2 6-31G*
   scf_algorithm rca_diis
   SYM_IGNORE  TRUE
   print_input   true
   geom_opt_dmax   80
   pop_mulliken false
   XC_GRID 000075000302
$end

$molecule
0 1
C       -4.4859292704     0.5152913835     0.0077275806
C       -3.3523077182     1.1949191576     -0.0077273394
H       -5.4010873021     0.8955392928     -0.5490304497
H       -4.5886633350     -0.3738112352     0.5152975030
H       -3.2495734357     2.0840206913     -0.5152974862
H       -2.4371489386     0.8146707102     0.5490301918
$end
--------------------------------------------------------------

             Standard Nuclear Orientation (Angstroms)
    I     Atom           X                Y                Z
 ----------------------------------------------------------------
    1      C      -4.4859292704     0.5152913835     0.0077275806
    2      C      -3.3523077182     1.1949191576    -0.0077273394
    3      H      -5.4010873021     0.8955392928    -0.5490304497
    4      H      -4.5886633350    -0.3738112352     0.5152975030
    5      H      -3.2495734357     2.0840206913    -0.5152974862
    6      H      -2.4371489386     0.8146707102     0.5490301918
 ----------------------------------------------------------------

    7     -78.5468648392      6.82E-07 Convergence criterion met
    5     -78.5791767311      4.89E-06 Convergence criterion met
 Total energy in the final basis set = -78.57917673

                    Orbital Energies (a.u.)
 --------------------------------------------------------------

 Alpha MOs
 -- Occupied --
-10.2829 -10.2819  -0.8657  -0.6779  -0.5597  -0.5116  -0.4372  -0.3613

                    Cartesian Multipole Moments
 -----------------------------------------------------------------
    Charge (ESU x 10^10)
                 0.0000
    Dipole Moment (Debye)
         X      -0.0000      Y      -0.0000      Z      -0.0000
       Tot       0.0000
    Quadrupole Moments (Debye-Ang)
        XX     -12.5344     XY       0.5469     YY     -13.0725
        XZ       0.7666     YZ      -1.3818     ZZ     -14.5296

 Total job time:  4.50s(wall), 23.76s(cpu)
        *  Thank you very much for using Q-Chem.  Have a nice day.  *
