 Q-Chem 5.3 (devel), Q-Chem, Inc., Pleasanton, CA (2020)
 Q-Chem 5.3.0 for Intel X86 EM64T Linux

User input:
--------------------------------------------------------------
$rem
   JOBTYPE  sp
   EXCHANGE   omegaB97X-D
   BASIS   6-311+G(2df,2pd)
   UNRESTRICTED   False
   max_scf_cycles   250
   geom_opt_max_cycles   1500
   basis2 6-31G*
   scf_algorithm rca_diis
   SYM_IGNORE  TRUE
   print_input   true
   geom_opt_dmax   80
   pop_mulliken false
   XC_GRID 000075000302
$end

$molecule
0 1
C       -4.4784291620     0.5021219555     0.0184548107
C       -3.3339250477     1.1635196538     0.0180179081
H       -5.3877542546     0.8907995853     -0.5414430164
H       -4.5903976586     -0.3876524637     0.5231700743
H       -3.2166562896     2.1454404708     -0.5412291775
H       -2.5075475875     0.8164007983     0.5230294009
$end
--------------------------------------------------------------

             Standard Nuclear Orientation (Angstroms)
    I     Atom           X                Y                Z
 ----------------------------------------------------------------
    1      C      -4.4784291620     0.5021219555     0.0184548107
    2      C      -3.3339250477     1.1635196538     0.0180179081
    3      H      -5.3877542546     0.8907995853    -0.5414430164
    4      H      -4.5903976586    -0.3876524637     0.5231700743
    5      H      -3.2166562896     2.1454404708    -0.5412291775
    6      H      -2.5075475875     0.8164007983     0.5230294009
 ----------------------------------------------------------------

    7     -78.5468031112      2.67E-06 Convergence criterion met
    5     -78.5791076158      4.93E-06 Convergence criterion met
 Total energy in the final basis set = -78.57910762

                    Orbital Energies (a.u.)
 --------------------------------------------------------------

 Alpha MOs
 -- Occupied --
-10.2828 -10.2818  -0.8659  -0.6768  -0.5633  -0.5078  -0.4382  -0.3613

                    Cartesian Multipole Moments
 -----------------------------------------------------------------
    Charge (ESU x 10^10)
                 0.0000
    Dipole Moment (Debye)
         X       0.0275      Y      -0.0472      Z       0.0385
       Tot       0.0668
    Quadrupole Moments (Debye-Ang)
        XX     -12.7132     XY       0.7344     YY     -13.1819
        XZ       0.6408     YZ      -1.3377     ZZ     -14.5258

 Total job time:  4.41s(wall), 23.29s(cpu)
        *  Thank you very much for using Q-Chem.  Have a nice day.  *
