 Q-Chem 5.3 (devel), Q-Chem, Inc., Pleasanton, CA (2020)
 Q-Chem 5.3.0 for Intel X86 EM64T Linux

User input:
--------------------------------------------------------------
$rem
   JOBTYPE  sp
   EXCHANGE   omegaB97X-D
   BASIS   6-311+G(2df,2pd)
   UNRESTRICTED   False
   max_scf_cycles   250
   geom_opt_max_cycles   1500
   basis2 6-31G*
   scf_algorithm rca_diis
   SYM_IGNORE  TRUE
   print_input   true
   geom_opt_dmax   80
   pop_mulliken false
   XC_GRID 000075000302
$end

$molecule
0 1
C       -4.4927594026     0.5267728520     0.0034329718
C       -3.3485041360     1.1886003133     0.0023796051
H       -5.4047542807     0.9659059862     -0.3806787948
H       -4.5595205616     -0.4870740333     0.3771210796
H       -3.1722073093     2.0209115485     -0.6670363403
H       -2.5369643098     0.9155133335     0.6647814786
$end
--------------------------------------------------------------

             Standard Nuclear Orientation (Angstroms)
    I     Atom           X                Y                Z
 ----------------------------------------------------------------
    1      C      -4.4927594026     0.5267728520     0.0034329718
    2      C      -3.3485041360     1.1886003133     0.0023796051
    3      H      -5.4047542807     0.9659059862    -0.3806787948
    4      H      -4.5595205616    -0.4870740333     0.3771210796
    5      H      -3.1722073093     2.0209115485    -0.6670363403
    6      H      -2.5369643098     0.9155133335     0.6647814786
 ----------------------------------------------------------------

    7     -78.5445386980      1.05E-06 Convergence criterion met
    5     -78.5767879808      5.11E-06 Convergence criterion met
 Total energy in the final basis set = -78.57678798

                    Orbital Energies (a.u.)
 --------------------------------------------------------------

 Alpha MOs
 -- Occupied --
-10.2833 -10.2823  -0.8656  -0.6752  -0.5595  -0.5096  -0.4506  -0.3479

                    Cartesian Multipole Moments
 -----------------------------------------------------------------
    Charge (ESU x 10^10)
                -0.0000
    Dipole Moment (Debye)
         X       0.0056      Y      -0.0097      Z      -0.0152
       Tot       0.0188
    Quadrupole Moments (Debye-Ang)
        XX     -12.6055     XY       0.5729     YY     -13.1969
        XZ       0.7662     YZ      -1.2326     ZZ     -14.4827

 Total job time:  4.33s(wall), 22.82s(cpu)
        *  Thank you very much for using Q-Chem.  Have a nice day.  *
