 Q-Chem 5.3 (devel), Q-Chem, Inc., Pleasanton, CA (2020)
 Q-Chem 5.3.0 for Intel X86 EM64T Linux

User input:
--------------------------------------------------------------
$rem
   JOBTYPE  sp
   EXCHANGE   omegaB97X-D
   BASIS   6-311+G(2df,2pd)
   UNRESTRICTED   False
   max_scf_cycles   250
   geom_opt_max_cycles   1500
   basis2 6-31G*
   scf_algorithm rca_diis
   SYM_IGNORE  TRUE
   print_input   true
   geom_opt_dmax   80
   pop_mulliken false
   XC_GRID 000075000302
$end

$molecule
0 1
C       -4.5224446924     0.6502019424     0.1758578642
C       -3.3157772623     1.0599937107     -0.1758929587
H       -5.2968154409     0.8475619219     -0.5544196745
H       -4.5795546129     -0.3932595457     0.4587647086
H       -3.2586853341     2.1034773810     -0.4587288201
H       -2.5414326575     0.8626545898     0.5544188805
$end
--------------------------------------------------------------

             Standard Nuclear Orientation (Angstroms)
    I     Atom           X                Y                Z
 ----------------------------------------------------------------
    1      C      -4.5224446924     0.6502019424     0.1758578642
    2      C      -3.3157772623     1.0599937107    -0.1758929587
    3      H      -5.2968154409     0.8475619219    -0.5544196745
    4      H      -4.5795546129    -0.3932595457     0.4587647086
    5      H      -3.2586853341     2.1034773810    -0.4587288201
    6      H      -2.5414326575     0.8626545898     0.5544188805
 ----------------------------------------------------------------

    7     -78.5143659808      9.93E-07 Convergence criterion met
    5     -78.5461019937      6.15E-06 Convergence criterion met
 Total energy in the final basis set = -78.54610199

                    Orbital Energies (a.u.)
 --------------------------------------------------------------

 Alpha MOs
 -- Occupied --
-10.2855 -10.2846  -0.8781  -0.6786  -0.5567  -0.4945  -0.4215  -0.3758

                    Cartesian Multipole Moments
 -----------------------------------------------------------------
    Charge (ESU x 10^10)
                -0.0000
    Dipole Moment (Debye)
         X      -0.0003      Y       0.0000      Z       0.0002
       Tot       0.0003
    Quadrupole Moments (Debye-Ang)
        XX     -13.2542     XY       0.6368     YY     -13.0875
        XZ       1.0608     YZ      -0.7262     ZZ     -14.5032

 Total job time:  4.49s(wall), 23.65s(cpu)
        *  Thank you very much for using Q-Chem.  Have a nice day.  *
