 Q-Chem 5.3 (devel), Q-Chem, Inc., Pleasanton, CA (2020)
 Q-Chem 5.3.0 for Intel X86 EM64T Linux

User input:
--------------------------------------------------------------
$rem
   JOBTYPE  sp
   EXCHANGE   omegaB97X-D
   BASIS   6-311+G(2df,2pd)
   UNRESTRICTED   False
   max_scf_cycles   250
   geom_opt_max_cycles   1500
   basis2 6-31G*
   scf_algorithm rca_diis
   SYM_IGNORE  TRUE
   print_input   true
   geom_opt_dmax   80
   pop_mulliken false
   XC_GRID 000075000302
$end

$molecule
0 1
C       -4.5253546239     0.5043286641     -0.0001507474
C       -3.3128918764     1.2058972533     0.0001771744
H       -5.4810893202     0.7294505702     -0.4755098907
H       -4.8080930381     -0.4357101019     0.4757322869
H       -3.0301415769     2.1459170516     -0.4757362125
H       -2.3571395645     0.9807465628     0.4754873893
$end
--------------------------------------------------------------

             Standard Nuclear Orientation (Angstroms)
    I     Atom           X                Y                Z
 ----------------------------------------------------------------
    1      C      -4.5253546239     0.5043286641    -0.0001507474
    2      C      -3.3128918764     1.2058972533     0.0001771744
    3      H      -5.4810893202     0.7294505702    -0.4755098907
    4      H      -4.8080930381    -0.4357101019     0.4757322869
    5      H      -3.0301415769     2.1459170516    -0.4757362125
    6      H      -2.3571395645     0.9807465628     0.4754873893
 ----------------------------------------------------------------

    7     -78.5278129160      5.61E-07 Convergence criterion met
    5     -78.5590266325      6.34E-06 Convergence criterion met
 Total energy in the final basis set = -78.55902663

                    Orbital Energies (a.u.)
 --------------------------------------------------------------

 Alpha MOs
 -- Occupied --
-10.3052 -10.3047  -0.8457  -0.7038  -0.5410  -0.5213  -0.4226  -0.3508

                    Cartesian Multipole Moments
 -----------------------------------------------------------------
    Charge (ESU x 10^10)
                -0.0000
    Dipole Moment (Debye)
         X       0.0000      Y      -0.0000      Z      -0.0001
       Tot       0.0001
    Quadrupole Moments (Debye-Ang)
        XX     -11.4337     XY       1.7109     YY     -13.4038
        XZ       0.5551     YZ      -0.9640     ZZ     -15.1799

 Total job time:  4.21s(wall), 22.12s(cpu)
        *  Thank you very much for using Q-Chem.  Have a nice day.  *
