 Q-Chem 5.3 (devel), Q-Chem, Inc., Pleasanton, CA (2020)
 Q-Chem 5.3.0 for Intel X86 EM64T Linux

User input:
--------------------------------------------------------------
$rem
   JOBTYPE  sp
   EXCHANGE   omegaB97X-D
   BASIS   6-311+G(2df,2pd)
   UNRESTRICTED   False
   max_scf_cycles   250
   geom_opt_max_cycles   1500
   basis2 6-31G*
   scf_algorithm rca_diis
   SYM_IGNORE  TRUE
   print_input   true
   geom_opt_dmax   80
   pop_mulliken false
   XC_GRID 000075000302
$end

$molecule
0 1
C       -4.5051369810     0.5526860295     0.0445004124
C       -3.3330939191     1.1575167961     -0.0445134347
H       -5.3522187273     0.8840464981     -0.5425720075
H       -4.6011598280     -0.4157841405     0.5186808733
H       -3.2370764369     2.1259920903     -0.5186804400
H       -2.4860241077     0.8261727267     0.5425845964
$end
--------------------------------------------------------------

             Standard Nuclear Orientation (Angstroms)
    I     Atom           X                Y                Z
 ----------------------------------------------------------------
    1      C      -4.5051369810     0.5526860295     0.0445004124
    2      C      -3.3330939191     1.1575167961    -0.0445134347
    3      H      -5.3522187273     0.8840464981    -0.5425720075
    4      H      -4.6011598280    -0.4157841405     0.5186808733
    5      H      -3.2370764369     2.1259920903    -0.5186804400
    6      H      -2.4860241077     0.8261727267     0.5425845964
 ----------------------------------------------------------------

    7     -78.5522551260      7.02E-07 Convergence criterion met
    5     -78.5842289703      4.97E-06 Convergence criterion met
 Total energy in the final basis set = -78.58422897

                    Orbital Energies (a.u.)
 --------------------------------------------------------------

 Alpha MOs
 -- Occupied --
-10.2830 -10.2821  -0.8658  -0.6750  -0.5613  -0.5082  -0.4379  -0.3620

                    Cartesian Multipole Moments
 -----------------------------------------------------------------
    Charge (ESU x 10^10)
                -0.0000
    Dipole Moment (Debye)
         X      -0.0000      Y       0.0000      Z       0.0000
       Tot       0.0000
    Quadrupole Moments (Debye-Ang)
        XX     -12.6057     XY       0.5758     YY     -13.0383
        XZ       0.8995     YZ      -1.2758     ZZ     -14.5293

 Total job time:  4.33s(wall), 22.95s(cpu)
        *  Thank you very much for using Q-Chem.  Have a nice day.  *
