 Q-Chem 5.3 (devel), Q-Chem, Inc., Pleasanton, CA (2020)
 Q-Chem 5.3.0 for Intel X86 EM64T Linux

User input:
--------------------------------------------------------------
$rem
   JOBTYPE  sp
   EXCHANGE   omegaB97X-D
   BASIS   6-311+G(2df,2pd)
   UNRESTRICTED   False
   max_scf_cycles   250
   geom_opt_max_cycles   1500
   basis2 6-31G*
   scf_algorithm rca_diis
   SYM_IGNORE  TRUE
   print_input   true
   geom_opt_dmax   80
   pop_mulliken false
   XC_GRID 000075000302
$end

$molecule
0 1
C       -4.5310412919     0.5016768037     0.0004337494
C       -3.3865334950     1.1630680033     -0.0000151771
H       -5.3536893909     0.9309522790     -0.5541399212
H       -4.5696040383     -0.4260575055     0.5538895534
H       -3.1959627753     2.1020120445     -0.5074658770
H       -2.4778790086     0.8589783752     0.5072976725
$end
--------------------------------------------------------------

             Standard Nuclear Orientation (Angstroms)
    I     Atom           X                Y                Z
 ----------------------------------------------------------------
    1      C      -4.5310412919     0.5016768037     0.0004337494
    2      C      -3.3865334950     1.1630680033    -0.0000151771
    3      H      -5.3536893909     0.9309522790    -0.5541399212
    4      H      -4.5696040383    -0.4260575055     0.5538895534
    5      H      -3.1959627753     2.1020120445    -0.5074658770
    6      H      -2.4778790086     0.8589783752     0.5072976725
 ----------------------------------------------------------------

    7     -78.5510412116      2.16E-06 Convergence criterion met
    5     -78.5831833236      9.43E-06 Convergence criterion met
 Total energy in the final basis set = -78.58318332

                    Orbital Energies (a.u.)
 --------------------------------------------------------------

 Alpha MOs
 -- Occupied --
-10.2836 -10.2816  -0.8656  -0.6760  -0.5628  -0.5083  -0.4364  -0.3613

                    Cartesian Multipole Moments
 -----------------------------------------------------------------
    Charge (ESU x 10^10)
                -0.0000
    Dipole Moment (Debye)
         X       0.0690      Y       0.0390      Z      -0.0010
       Tot       0.0793
    Quadrupole Moments (Debye-Ang)
        XX     -13.0477     XY       0.4391     YY     -13.0516
        XZ       0.7903     YZ      -1.3620     ZZ     -14.5394

 Total job time:  4.33s(wall), 22.82s(cpu)
        *  Thank you very much for using Q-Chem.  Have a nice day.  *
