 Q-Chem 5.3 (devel), Q-Chem, Inc., Pleasanton, CA (2020)
 Q-Chem 5.3.0 for Intel X86 EM64T Linux

User input:
--------------------------------------------------------------
$rem
   JOBTYPE  sp
   EXCHANGE   omegaB97X-D
   BASIS   6-311+G(2df,2pd)
   UNRESTRICTED   False
   max_scf_cycles   250
   geom_opt_max_cycles   1500
   basis2 6-31G*
   scf_algorithm rca_diis
   SYM_IGNORE  TRUE
   print_input   true
   geom_opt_dmax   80
   pop_mulliken false
   XC_GRID 000075000302
$end

$molecule
0 1
C       -4.4771755160     0.5327829363     0.0001478560
C       -3.3610638059     1.1774332559     -0.0001388504
H       -5.4777469565     0.9429248545     -0.6051622589
H       -4.6217746247     -0.5404098083     0.6055380705
H       -3.2164601697     2.2506152343     -0.6055414279
H       -2.3604889273     0.7672835274     0.6051566107
$end
--------------------------------------------------------------

             Standard Nuclear Orientation (Angstroms)
    I     Atom           X                Y                Z
 ----------------------------------------------------------------
    1      C      -4.4771755160     0.5327829363     0.0001478560
    2      C      -3.3610638059     1.1774332559    -0.0001388504
    3      H      -5.4777469565     0.9429248545    -0.6051622589
    4      H      -4.6217746247    -0.5404098083     0.6055380705
    5      H      -3.2164601697     2.2506152343    -0.6055414279
    6      H      -2.3604889273     0.7672835274     0.6051566107
 ----------------------------------------------------------------

    7     -78.5066625327      1.26E-06 Convergence criterion met
    5     -78.5375976675      5.60E-06 Convergence criterion met
 Total energy in the final basis set = -78.53759767

                    Orbital Energies (a.u.)
 --------------------------------------------------------------

 Alpha MOs
 -- Occupied --
-10.3109 -10.3097  -0.8619  -0.6307  -0.5322  -0.4994  -0.4048  -0.3706

                    Cartesian Multipole Moments
 -----------------------------------------------------------------
    Charge (ESU x 10^10)
                 0.0000
    Dipole Moment (Debye)
         X       0.0000      Y      -0.0000      Z      -0.0000
       Tot       0.0000
    Quadrupole Moments (Debye-Ang)
        XX     -12.8233     XY       0.4418     YY     -13.3318
        XZ       0.9300     YZ      -1.6082     ZZ     -14.9017

 Total job time:  4.30s(wall), 22.65s(cpu)
        *  Thank you very much for using Q-Chem.  Have a nice day.  *
