 Q-Chem 5.3 (devel), Q-Chem, Inc., Pleasanton, CA (2020)
 Q-Chem 5.3.0 for Intel X86 EM64T Linux

User input:
--------------------------------------------------------------
$rem
   JOBTYPE  sp
   EXCHANGE   omegaB97X-D
   BASIS   6-311+G(2df,2pd)
   UNRESTRICTED   False
   max_scf_cycles   250
   geom_opt_max_cycles   1500
   basis2 6-31G*
   scf_algorithm rca_diis
   SYM_IGNORE  TRUE
   print_input   true
   geom_opt_dmax   80
   pop_mulliken false
   XC_GRID 000075000302
$end

$molecule
0 1
C       -4.4880090238     0.5186664996     -0.0040525062
C       -3.3445113144     1.1817965917     -0.0069292989
H       -5.2326879438     0.6768883041     -0.7736538710
H       -4.7369194628     -0.1886750632     0.7767350321
H       -3.3101603174     2.2450417439     -0.2077715659
H       -2.4024219379     0.6969119241     0.2156722099
$end
--------------------------------------------------------------

             Standard Nuclear Orientation (Angstroms)
    I     Atom           X                Y                Z
 ----------------------------------------------------------------
    1      C      -4.4880090238     0.5186664996    -0.0040525062
    2      C      -3.3445113144     1.1817965917    -0.0069292989
    3      H      -5.2326879438     0.6768883041    -0.7736538710
    4      H      -4.7369194628    -0.1886750632     0.7767350321
    5      H      -3.3101603174     2.2450417439    -0.2077715659
    6      H      -2.4024219379     0.6969119241     0.2156722099
 ----------------------------------------------------------------

    7     -78.5146629091      1.49E-06 Convergence criterion met
    5     -78.5476413335      5.79E-06 Convergence criterion met
 Total energy in the final basis set = -78.54764133

                    Orbital Energies (a.u.)
 --------------------------------------------------------------

 Alpha MOs
 -- Occupied --
-10.2846 -10.2836  -0.8675  -0.6763  -0.5536  -0.5110  -0.4740  -0.3200

                    Cartesian Multipole Moments
 -----------------------------------------------------------------
    Charge (ESU x 10^10)
                -0.0000
    Dipole Moment (Debye)
         X      -0.0118      Y       0.0202      Z       0.0313
       Tot       0.0391
    Quadrupole Moments (Debye-Ang)
        XX     -12.6749     XY       0.4341     YY     -13.3724
        XZ       0.3440     YZ      -0.7669     ZZ     -14.3522

 Total job time:  4.38s(wall), 23.07s(cpu)
        *  Thank you very much for using Q-Chem.  Have a nice day.  *
