 Q-Chem 5.3 (devel), Q-Chem, Inc., Pleasanton, CA (2020)
 Q-Chem 5.3.0 for Intel X86 EM64T Linux

User input:
--------------------------------------------------------------
$rem
   JOBTYPE  sp
   EXCHANGE   omegaB97X-D
   BASIS   6-311+G(2df,2pd)
   UNRESTRICTED   False
   max_scf_cycles   250
   geom_opt_max_cycles   1500
   basis2 6-31G*
   scf_algorithm rca_diis
   SYM_IGNORE  TRUE
   print_input   true
   geom_opt_dmax   80
   pop_mulliken false
   XC_GRID 000075000302
$end

$molecule
0 1
C       -4.5257594626     0.5043367670     0.0002942545
C       -3.3812545286     1.1657327453     -0.0001441047
H       -5.3069922041     0.8402765613     -0.4818745309
H       -4.6248131239     -0.3399121147     0.4817624014
H       -3.2497958877     2.1932426664     -0.5822218148
H       -2.4260947931     0.7669533748     0.5821837946
$end
--------------------------------------------------------------

             Standard Nuclear Orientation (Angstroms)
    I     Atom           X                Y                Z
 ----------------------------------------------------------------
    1      C      -4.5257594626     0.5043367670     0.0002942545
    2      C      -3.3812545286     1.1657327453    -0.0001441047
    3      H      -5.3069922041     0.8402765613    -0.4818745309
    4      H      -4.6248131239    -0.3399121147     0.4817624014
    5      H      -3.2497958877     2.1932426664    -0.5822218148
    6      H      -2.4260947931     0.7669533748     0.5821837946
 ----------------------------------------------------------------

    7     -78.5240016999      8.11E-06 Convergence criterion met
    5     -78.5571953161      9.83E-06 Convergence criterion met
 Total energy in the final basis set = -78.55719532

                    Orbital Energies (a.u.)
 --------------------------------------------------------------

 Alpha MOs
 -- Occupied --
-10.3033 -10.2603  -0.8692  -0.6772  -0.5687  -0.5073  -0.4354  -0.3617

                    Cartesian Multipole Moments
 -----------------------------------------------------------------
    Charge (ESU x 10^10)
                -0.0000
    Dipole Moment (Debye)
         X      -0.1080      Y      -0.0626      Z       0.0003
       Tot       0.1249
    Quadrupole Moments (Debye-Ang)
        XX     -11.6275     XY       0.6912     YY     -13.1991
        XZ       0.7879     YZ      -1.3653     ZZ     -14.5194

 Total job time:  4.38s(wall), 22.82s(cpu)
        *  Thank you very much for using Q-Chem.  Have a nice day.  *
