 Q-Chem 5.3 (devel), Q-Chem, Inc., Pleasanton, CA (2020)
 Q-Chem 5.3.0 for Intel X86 EM64T Linux

User input:
--------------------------------------------------------------
$rem
   JOBTYPE  sp
   EXCHANGE   omegaB97X-D
   BASIS   6-311+G(2df,2pd)
   UNRESTRICTED   False
   max_scf_cycles   250
   geom_opt_max_cycles   1500
   basis2 6-31G*
   scf_algorithm rca_diis
   SYM_IGNORE  TRUE
   print_input   true
   geom_opt_dmax   80
   pop_mulliken false
   XC_GRID 000075000302
$end

$molecule
0 1
C       -4.4122597113     0.5697585399     -0.0001748564
C       -3.2677402981     1.2311300499     -0.0006608298
H       -5.3568263728     0.8083169116     -0.4795873652
H       -4.6778164124     -0.3671946172     0.4799496481
H       -3.3053739315     2.1457549585     -0.5725613336
H       -2.4946932739     0.7428641574     0.5730347369
$end
--------------------------------------------------------------

             Standard Nuclear Orientation (Angstroms)
    I     Atom           X                Y                Z
 ----------------------------------------------------------------
    1      C      -4.4122597113     0.5697585399    -0.0001748564
    2      C      -3.2677402981     1.2311300499    -0.0006608298
    3      H      -5.3568263728     0.8083169116    -0.4795873652
    4      H      -4.6778164124    -0.3671946172     0.4799496481
    5      H      -3.3053739315     2.1457549585    -0.5725613336
    6      H      -2.4946932739     0.7428641574     0.5730347369
 ----------------------------------------------------------------

    7     -78.5404690186      2.53E-06 Convergence criterion met
    6     -78.5730153843      7.05E-06 Convergence criterion met
 Total energy in the final basis set = -78.57301538

                    Orbital Energies (a.u.)
 --------------------------------------------------------------

 Alpha MOs
 -- Occupied --
-10.2854 -10.2810  -0.8673  -0.6795  -0.5663  -0.5060  -0.4288  -0.3619

                    Cartesian Multipole Moments
 -----------------------------------------------------------------
    Charge (ESU x 10^10)
                -0.0000
    Dipole Moment (Debye)
         X      -0.1461      Y      -0.0827      Z       0.0020
       Tot       0.1679
    Quadrupole Moments (Debye-Ang)
        XX     -11.4048     XY       0.7318     YY     -13.3024
        XZ       0.7650     YZ      -1.3351     ZZ     -14.5621

 Total job time:  4.67s(wall), 24.83s(cpu)
        *  Thank you very much for using Q-Chem.  Have a nice day.  *
