 Q-Chem 5.3 (devel), Q-Chem, Inc., Pleasanton, CA (2020)
 Q-Chem 5.3.0 for Intel X86 EM64T Linux

User input:
--------------------------------------------------------------
$rem
   JOBTYPE  sp
   EXCHANGE   omegaB97X-D
   BASIS   6-311+G(2df,2pd)
   UNRESTRICTED   False
   max_scf_cycles   250
   geom_opt_max_cycles   1500
   basis2 6-31G*
   scf_algorithm rca_diis
   SYM_IGNORE  TRUE
   print_input   true
   geom_opt_dmax   80
   pop_mulliken false
   XC_GRID 000075000302
$end

$molecule
0 1
C       -4.4263847034     0.5617983494     0.0000751126
C       -3.4118518367     1.1484115386     -0.0000753261
H       -5.3583760978     0.8014009567     -0.4762422149
H       -4.6843622417     -0.3652772971     0.4762798383
H       -3.1538755875     2.0754891706     -0.4762768292
H       -2.4798595329     0.9088072820     0.4762394193
$end
--------------------------------------------------------------

             Standard Nuclear Orientation (Angstroms)
    I     Atom           X                Y                Z
 ----------------------------------------------------------------
    1      C      -4.4263847034     0.5617983494     0.0000751126
    2      C      -3.4118518367     1.1484115386    -0.0000753261
    3      H      -5.3583760978     0.8014009567    -0.4762422149
    4      H      -4.6843622417    -0.3652772971     0.4762798383
    5      H      -3.1538755875     2.0754891706    -0.4762768292
    6      H      -2.4798595329     0.9088072820     0.4762394193
 ----------------------------------------------------------------

    7     -78.5051378806      1.19E-06 Convergence criterion met
    5     -78.5423465053      6.21E-06 Convergence criterion met
 Total energy in the final basis set = -78.54234651

                    Orbital Energies (a.u.)
 --------------------------------------------------------------

 Alpha MOs
 -- Occupied --
-10.2584 -10.2552  -0.8946  -0.6827  -0.5587  -0.5530  -0.3964  -0.3905

                    Cartesian Multipole Moments
 -----------------------------------------------------------------
    Charge (ESU x 10^10)
                 0.0000
    Dipole Moment (Debye)
         X      -0.0000      Y       0.0000      Z       0.0000
       Tot       0.0000
    Quadrupole Moments (Debye-Ang)
        XX     -11.9036     XY       1.0326     YY     -13.0914
        XZ       0.4217     YZ      -0.7311     ZZ     -14.2861

 Total job time:  4.33s(wall), 22.96s(cpu)
        *  Thank you very much for using Q-Chem.  Have a nice day.  *
