 Q-Chem 5.3 (devel), Q-Chem, Inc., Pleasanton, CA (2020)
 Q-Chem 5.3.0 for Intel X86 EM64T Linux

User input:
--------------------------------------------------------------
$rem
   JOBTYPE  sp
   EXCHANGE   omegaB97X-D
   BASIS   6-311+G(2df,2pd)
   UNRESTRICTED   False
   max_scf_cycles   250
   geom_opt_max_cycles   1500
   basis2 6-31G*
   scf_algorithm rca_diis
   SYM_IGNORE  TRUE
   print_input   true
   geom_opt_dmax   80
   pop_mulliken false
   XC_GRID 000075000302
$end

$molecule
0 1
C       -4.5026910689     0.5177006863     0.0000720451
C       -3.3355462258     1.1925099140     -0.0000708719
H       -5.4024440667     0.8390890510     -0.5148891805
H       -4.6737355723     -0.4223132093     0.5149541682
H       -3.1645007305     2.1325227425     -0.5149545977
H       -2.4357923358     0.8711208157     0.5148884368
$end
--------------------------------------------------------------

             Standard Nuclear Orientation (Angstroms)
    I     Atom           X                Y                Z
 ----------------------------------------------------------------
    1      C      -4.5026910689     0.5177006863     0.0000720451
    2      C      -3.3355462258     1.1925099140    -0.0000708719
    3      H      -5.4024440667     0.8390890510    -0.5148891805
    4      H      -4.6737355723    -0.4223132093     0.5149541682
    5      H      -3.1645007305     2.1325227425    -0.5149545977
    6      H      -2.4357923358     0.8711208157     0.5148884368
 ----------------------------------------------------------------

    7     -78.5519979966      6.35E-07 Convergence criterion met
    5     -78.5834347025      5.31E-06 Convergence criterion met
 Total energy in the final basis set = -78.58343470

                    Orbital Energies (a.u.)
 --------------------------------------------------------------

 Alpha MOs
 -- Occupied --
-10.2903 -10.2895  -0.8575  -0.6844  -0.5480  -0.5198  -0.4351  -0.3572

                    Cartesian Multipole Moments
 -----------------------------------------------------------------
    Charge (ESU x 10^10)
                 0.0000
    Dipole Moment (Debye)
         X       0.0000      Y      -0.0000      Z      -0.0000
       Tot       0.0000
    Quadrupole Moments (Debye-Ang)
        XX     -12.1453     XY       0.9089     YY     -13.1903
        XZ       0.7209     YZ      -1.2493     ZZ     -14.7369

 Total job time:  4.35s(wall), 22.90s(cpu)
        *  Thank you very much for using Q-Chem.  Have a nice day.  *
