 Q-Chem 5.3 (devel), Q-Chem, Inc., Pleasanton, CA (2020)
 Q-Chem 5.3.0 for Intel X86 EM64T Linux

User input:
--------------------------------------------------------------
$rem
   JOBTYPE  sp
   EXCHANGE   omegaB97X-D
   BASIS   6-311+G(2df,2pd)
   UNRESTRICTED   False
   max_scf_cycles   250
   geom_opt_max_cycles   1500
   basis2 6-31G*
   scf_algorithm rca_diis
   SYM_IGNORE  TRUE
   print_input   true
   geom_opt_dmax   80
   pop_mulliken false
   XC_GRID 000075000302
$end

$molecule
0 1
C       -4.4939971052     0.5288725576     0.0086808194
C       -3.3510732400     1.1929839949     0.0044554156
H       -5.4454803471     1.0265718936     -0.1299305032
H       -4.5185121364     -0.5477374671     0.1197171821
H       -3.0625284659     1.8313764657     -0.8208344995
H       -2.6431187054     1.0985625553     0.8179115856
$end
--------------------------------------------------------------

             Standard Nuclear Orientation (Angstroms)
    I     Atom           X                Y                Z
 ----------------------------------------------------------------
    1      C      -4.4939971052     0.5288725576     0.0086808194
    2      C      -3.3510732400     1.1929839949     0.0044554156
    3      H      -5.4454803471     1.0265718936    -0.1299305032
    4      H      -4.5185121364    -0.5477374671     0.1197171821
    5      H      -3.0625284659     1.8313764657    -0.8208344995
    6      H      -2.6431187054     1.0985625553     0.8179115856
 ----------------------------------------------------------------

    7     -78.4924489907      1.96E-06 Convergence criterion met
    5     -78.5259914083      6.39E-06 Convergence criterion met
 Total energy in the final basis set = -78.52599141

                    Orbital Energies (a.u.)
 --------------------------------------------------------------

 Alpha MOs
 -- Occupied --
-10.2856 -10.2846  -0.8691  -0.6772  -0.5493  -0.5122  -0.4867  -0.3040

                    Cartesian Multipole Moments
 -----------------------------------------------------------------
    Charge (ESU x 10^10)
                -0.0000
    Dipole Moment (Debye)
         X       0.0150      Y      -0.0257      Z      -0.0399
       Tot       0.0498
    Quadrupole Moments (Debye-Ang)
        XX     -13.0392     XY       0.6299     YY     -13.6169
        XZ       0.4550     YZ      -0.5280     ZZ     -14.2664

 Total job time:  4.60s(wall), 24.30s(cpu)
        *  Thank you very much for using Q-Chem.  Have a nice day.  *
