 Q-Chem 5.3 (devel), Q-Chem, Inc., Pleasanton, CA (2020)
 Q-Chem 5.3.0 for Intel X86 EM64T Linux

User input:
--------------------------------------------------------------
$rem
   JOBTYPE  sp
   EXCHANGE   omegaB97X-D
   BASIS   6-311+G(2df,2pd)
   UNRESTRICTED   False
   max_scf_cycles   250
   geom_opt_max_cycles   1500
   basis2 6-31G*
   scf_algorithm rca_diis
   SYM_IGNORE  TRUE
   print_input   true
   geom_opt_dmax   80
   pop_mulliken false
   XC_GRID 000075000302
$end

$molecule
0 1
C       -4.5824989896     0.6854685691     0.2578937367
C       -3.4359350523     1.3432829197     0.2607888262
H       -5.1669383192     0.8350933307     -0.6409506245
H       -4.4731485557     -0.3840403916     0.3854920537
H       -3.2860599153     1.9499959430     -0.6231083086
H       -2.5701291680     0.7008296292     0.3598843165
$end
--------------------------------------------------------------

             Standard Nuclear Orientation (Angstroms)
    I     Atom           X                Y                Z
 ----------------------------------------------------------------
    1      C      -4.5824989896     0.6854685691     0.2578937367
    2      C      -3.4359350523     1.3432829197     0.2607888262
    3      H      -5.1669383192     0.8350933307    -0.6409506245
    4      H      -4.4731485557    -0.3840403916     0.3854920537
    5      H      -3.2860599153     1.9499959430    -0.6231083086
    6      H      -2.5701291680     0.7008296292     0.3598843165
 ----------------------------------------------------------------

    7     -78.4939569424      5.14E-06 Convergence criterion met
    5     -78.5272237609      9.81E-06 Convergence criterion met
 Total energy in the final basis set = -78.52722376

                    Orbital Energies (a.u.)
 --------------------------------------------------------------

 Alpha MOs
 -- Occupied --
-10.2866 -10.2856  -0.8829  -0.6702  -0.5593  -0.5126  -0.4164  -0.3641

                    Cartesian Multipole Moments
 -----------------------------------------------------------------
    Charge (ESU x 10^10)
                -0.0000
    Dipole Moment (Debye)
         X       0.3622      Y      -0.6424      Z      -1.0424
       Tot       1.2769
    Quadrupole Moments (Debye-Ang)
        XX     -16.7392     XY       2.7226     YY     -14.8270
        XZ       4.5892     YZ      -1.8003     ZZ     -14.4139

 Total job time:  4.42s(wall), 23.17s(cpu)
        *  Thank you very much for using Q-Chem.  Have a nice day.  *
