 Q-Chem 5.3 (devel), Q-Chem, Inc., Pleasanton, CA (2020)
 Q-Chem 5.3.0 for Intel X86 EM64T Linux

User input:
--------------------------------------------------------------
$rem
   JOBTYPE  sp
   EXCHANGE   omegaB97X-D
   BASIS   6-311+G(2df,2pd)
   UNRESTRICTED   False
   max_scf_cycles   250
   geom_opt_max_cycles   1500
   basis2 6-31G*
   scf_algorithm rca_diis
   SYM_IGNORE  TRUE
   print_input   true
   geom_opt_dmax   80
   pop_mulliken false
   XC_GRID 000075000302
$end

$molecule
0 1
C       -4.4574456062     0.5445880367     0.0007779561
C       -3.3807819524     1.1656073525     -0.0008022620
H       -5.2159471414     1.0429907312     -0.5740236993
H       -4.4036905796     -0.3625799245     0.5736153399
H       -3.4345508672     2.0727974335     -0.5736033625
H       -2.6222938533     0.6672263707     0.5740360277
$end
--------------------------------------------------------------

             Standard Nuclear Orientation (Angstroms)
    I     Atom           X                Y                Z
 ----------------------------------------------------------------
    1      C      -4.4574456062     0.5445880367     0.0007779561
    2      C      -3.3807819524     1.1656073525    -0.0008022620
    3      H      -5.2159471414     1.0429907312    -0.5740236993
    4      H      -4.4036905796    -0.3625799245     0.5736153399
    5      H      -3.4345508672     2.0727974335    -0.5736033625
    6      H      -2.6222938533     0.6672263707     0.5740360277
 ----------------------------------------------------------------

    7     -78.5207810704      9.14E-07 Convergence criterion met
    5     -78.5562544987      4.28E-06 Convergence criterion met
 Total energy in the final basis set = -78.55625450

                    Orbital Energies (a.u.)
 --------------------------------------------------------------

 Alpha MOs
 -- Occupied --
-10.2622 -10.2604  -0.8945  -0.6449  -0.6053  -0.4777  -0.4402  -0.3762

                    Cartesian Multipole Moments
 -----------------------------------------------------------------
    Charge (ESU x 10^10)
                -0.0000
    Dipole Moment (Debye)
         X      -0.0000      Y       0.0000      Z       0.0001
       Tot       0.0001
    Quadrupole Moments (Debye-Ang)
        XX     -13.5000     XY      -0.4832     YY     -12.9382
        XZ       0.9384     YZ      -1.6190     ZZ     -13.9847

 Total job time:  4.64s(wall), 24.38s(cpu)
        *  Thank you very much for using Q-Chem.  Have a nice day.  *
