 Q-Chem 5.3 (devel), Q-Chem, Inc., Pleasanton, CA (2020)
 Q-Chem 5.3.0 for Intel X86 EM64T Linux

User input:
--------------------------------------------------------------
$rem
   JOBTYPE  sp
   EXCHANGE   omegaB97X-D
   BASIS   6-311+G(2df,2pd)
   UNRESTRICTED   False
   max_scf_cycles   250
   geom_opt_max_cycles   1500
   basis2 6-31G*
   scf_algorithm rca_diis
   SYM_IGNORE  TRUE
   print_input   true
   geom_opt_dmax   80
   pop_mulliken false
   XC_GRID 000075000302
$end

$molecule
0 1
C       -4.4262548984     0.4528254647     -0.1331979715
C       -3.4119868084     1.2574015206     0.1332206657
H       -5.3433388880     0.9096068712     -0.4831026402
H       -4.6087882042     -0.3623568958     0.5552860365
H       -3.2294417432     2.0725530515     -0.5552969886
H       -2.4948994577     0.8005999878     0.4830908982
$end
--------------------------------------------------------------

             Standard Nuclear Orientation (Angstroms)
    I     Atom           X                Y                Z
 ----------------------------------------------------------------
    1      C      -4.4262548984     0.4528254647    -0.1331979715
    2      C      -3.4119868084     1.2574015206     0.1332206657
    3      H      -5.3433388880     0.9096068712    -0.4831026402
    4      H      -4.6087882042    -0.3623568958     0.5552860365
    5      H      -3.2294417432     2.0725530515    -0.5552969886
    6      H      -2.4948994577     0.8005999878     0.4830908982
 ----------------------------------------------------------------

    7     -78.5325761015      8.49E-07 Convergence criterion met
    5     -78.5643492079      5.59E-06 Convergence criterion met
 Total energy in the final basis set = -78.56434921

                    Orbital Energies (a.u.)
 --------------------------------------------------------------

 Alpha MOs
 -- Occupied --
-10.2842 -10.2832  -0.8726  -0.6762  -0.5597  -0.4998  -0.4297  -0.3695

                    Cartesian Multipole Moments
 -----------------------------------------------------------------
    Charge (ESU x 10^10)
                -0.0000
    Dipole Moment (Debye)
         X      -0.0000      Y      -0.0001      Z      -0.0001
       Tot       0.0001
    Quadrupole Moments (Debye-Ang)
        XX     -12.5075     XY       0.3086     YY     -13.5382
        XZ       0.3155     YZ      -1.3832     ZZ     -14.5067

 Total job time:  4.35s(wall), 22.85s(cpu)
        *  Thank you very much for using Q-Chem.  Have a nice day.  *
