 Q-Chem 5.3 (devel), Q-Chem, Inc., Pleasanton, CA (2020)
 Q-Chem 5.3.0 for Intel X86 EM64T Linux

User input:
--------------------------------------------------------------
$rem
   JOBTYPE  sp
   EXCHANGE   omegaB97X-D
   BASIS   6-311+G(2df,2pd)
   UNRESTRICTED   False
   max_scf_cycles   250
   geom_opt_max_cycles   1500
   basis2 6-31G*
   scf_algorithm rca_diis
   SYM_IGNORE  TRUE
   print_input   true
   geom_opt_dmax   80
   pop_mulliken false
   XC_GRID 000075000302
$end

$molecule
0 1
C       -4.4519753937     0.4743538587     -0.0887533116
C       -3.3862636062     1.2358644948     0.0887658634
H       -5.3546002351     0.9055814888     -0.5027655423
H       -4.6092696854     -0.3848321609     0.5507371827
H       -3.2289671693     2.0950395403     -0.5507359211
H       -2.4836339104     0.8046227784     0.5027517290
$end
--------------------------------------------------------------

             Standard Nuclear Orientation (Angstroms)
    I     Atom           X                Y                Z
 ----------------------------------------------------------------
    1      C      -4.4519753937     0.4743538587    -0.0887533116
    2      C      -3.3862636062     1.2358644948     0.0887658634
    3      H      -5.3546002351     0.9055814888    -0.5027655423
    4      H      -4.6092696854    -0.3848321609     0.5507371827
    5      H      -3.2289671693     2.0950395403    -0.5507359211
    6      H      -2.4836339104     0.8046227784     0.5027517290
 ----------------------------------------------------------------

    7     -78.5451309211      7.59E-07 Convergence criterion met
    5     -78.5770029903      5.20E-06 Convergence criterion met
 Total energy in the final basis set = -78.57700299

                    Orbital Energies (a.u.)
 --------------------------------------------------------------

 Alpha MOs
 -- Occupied --
-10.2834 -10.2824  -0.8684  -0.6753  -0.5609  -0.5048  -0.4350  -0.3648

                    Cartesian Multipole Moments
 -----------------------------------------------------------------
    Charge (ESU x 10^10)
                -0.0000
    Dipole Moment (Debye)
         X      -0.0000      Y      -0.0000      Z      -0.0000
       Tot       0.0001
    Quadrupole Moments (Debye-Ang)
        XX     -12.4467     XY       0.3954     YY     -13.3531
        XZ       0.4998     YZ      -1.4250     ZZ     -14.5185

 Total job time:  4.33s(wall), 22.70s(cpu)
        *  Thank you very much for using Q-Chem.  Have a nice day.  *
