 Q-Chem 5.3 (devel), Q-Chem, Inc., Pleasanton, CA (2020)
 Q-Chem 5.3.0 for Intel X86 EM64T Linux

User input:
--------------------------------------------------------------
$rem
   JOBTYPE  sp
   EXCHANGE   omegaB97X-D
   BASIS   6-311+G(2df,2pd)
   UNRESTRICTED   False
   max_scf_cycles   250
   geom_opt_max_cycles   1500
   basis2 6-31G*
   scf_algorithm rca_diis
   SYM_IGNORE  TRUE
   print_input   true
   geom_opt_dmax   80
   pop_mulliken false
   XC_GRID 000075000302
$end

$molecule
0 1
C       -4.5388970370     0.6439307374     -0.0900362305
C       -3.2993399679     1.0662795704     0.0900368406
H       -5.4822422739     0.8715442153     -0.5629542309
H       -4.4913135203     -0.2734922110     0.4883890574
H       -3.3469228800     1.9837020567     -0.4883893029
H       -2.3559943210     0.8386656312     0.5629538663
$end
--------------------------------------------------------------

             Standard Nuclear Orientation (Angstroms)
    I     Atom           X                Y                Z
 ----------------------------------------------------------------
    1      C      -4.5388970370     0.6439307374    -0.0900362305
    2      C      -3.2993399679     1.0662795704     0.0900368406
    3      H      -5.4822422739     0.8715442153    -0.5629542309
    4      H      -4.4913135203    -0.2734922110     0.4883890574
    5      H      -3.3469228800     1.9837020567    -0.4883893029
    6      H      -2.3559943210     0.8386656312     0.5629538663
 ----------------------------------------------------------------

    7     -78.5068063912      9.42E-07 Convergence criterion met
    5     -78.5400637891      5.16E-06 Convergence criterion met
 Total energy in the final basis set = -78.54006379

                    Orbital Energies (a.u.)
 --------------------------------------------------------------

 Alpha MOs
 -- Occupied --
-10.2861 -10.2851  -0.8754  -0.6756  -0.5643  -0.5402  -0.3847  -0.3648

                    Cartesian Multipole Moments
 -----------------------------------------------------------------
    Charge (ESU x 10^10)
                -0.0000
    Dipole Moment (Debye)
         X       0.0000      Y      -0.0000      Z      -0.0000
       Tot       0.0000
    Quadrupole Moments (Debye-Ang)
        XX     -11.4997     XY      -0.2481     YY     -14.3448
        XZ       1.6140     YZ      -0.8768     ZZ     -14.5263

 Total job time:  4.38s(wall), 23.00s(cpu)
        *  Thank you very much for using Q-Chem.  Have a nice day.  *
