 Q-Chem 5.3 (devel), Q-Chem, Inc., Pleasanton, CA (2020)
 Q-Chem 5.3.0 for Intel X86 EM64T Linux

User input:
--------------------------------------------------------------
$rem
   JOBTYPE  sp
   EXCHANGE   omegaB97X-D
   BASIS   6-311+G(2df,2pd)
   UNRESTRICTED   False
   max_scf_cycles   250
   geom_opt_max_cycles   1500
   basis2 6-31G*
   scf_algorithm rca_diis
   SYM_IGNORE  TRUE
   print_input   true
   geom_opt_dmax   80
   pop_mulliken false
   XC_GRID 000075000302
$end

$molecule
0 1
C       -4.5193661857     0.5821749053     -0.0451903661
C       -3.3188707501     1.1280353573     0.0451908731
H       -5.4279290374     0.8805942984     -0.5493260608
H       -4.5530599478     -0.3473203467     0.5117071697
H       -3.2851767242     2.0575304864     -0.5117068905
H       -2.4103073548     0.8296152993     0.5493252746
$end
--------------------------------------------------------------

             Standard Nuclear Orientation (Angstroms)
    I     Atom           X                Y                Z
 ----------------------------------------------------------------
    1      C      -4.5193661857     0.5821749053    -0.0451903661
    2      C      -3.3188707501     1.1280353573     0.0451908731
    3      H      -5.4279290374     0.8805942984    -0.5493260608
    4      H      -4.5530599478    -0.3473203467     0.5117071697
    5      H      -3.2851767242     2.0575304864    -0.5117068905
    6      H      -2.4103073548     0.8296152993     0.5493252746
 ----------------------------------------------------------------

    7     -78.5428306763      7.25E-07 Convergence criterion met
    5     -78.5751465521      4.93E-06 Convergence criterion met
 Total energy in the final basis set = -78.57514655

                    Orbital Energies (a.u.)
 --------------------------------------------------------------

 Alpha MOs
 -- Occupied --
-10.2837 -10.2827  -0.8674  -0.6750  -0.5621  -0.5201  -0.4222  -0.3619

                    Cartesian Multipole Moments
 -----------------------------------------------------------------
    Charge (ESU x 10^10)
                -0.0000
    Dipole Moment (Debye)
         X       0.0000      Y      -0.0000      Z      -0.0000
       Tot       0.0000
    Quadrupole Moments (Debye-Ang)
        XX     -11.9315     XY       0.1608     YY     -13.7222
        XZ       1.2155     YZ      -1.1202     ZZ     -14.5301

 Total job time:  4.37s(wall), 23.03s(cpu)
        *  Thank you very much for using Q-Chem.  Have a nice day.  *
