 Q-Chem 5.3 (devel), Q-Chem, Inc., Pleasanton, CA (2020)
 Q-Chem 5.3.0 for Intel X86 EM64T Linux

User input:
--------------------------------------------------------------
$rem
   JOBTYPE  sp
   EXCHANGE   omegaB97X-D
   BASIS   6-311+G(2df,2pd)
   UNRESTRICTED   False
   max_scf_cycles   250
   geom_opt_max_cycles   1500
   basis2 6-31G*
   scf_algorithm rca_diis
   SYM_IGNORE  TRUE
   print_input   true
   geom_opt_dmax   80
   pop_mulliken false
   XC_GRID 000075000302
$end

$molecule
0 1
C       -4.6095168490     0.4567404959     0.0008985478
C       -3.4649789088     1.1180791647     0.0003511429
H       -5.3289300495     1.0011767635     -0.5887818617
H       -4.4961073713     -0.4398770550     0.5880775588
H       -3.1256620160     2.0479623776     -0.4497478179
H       -2.4895148054     0.9465482534     0.4492024302
$end
--------------------------------------------------------------

             Standard Nuclear Orientation (Angstroms)
    I     Atom           X                Y                Z
 ----------------------------------------------------------------
    1      C      -4.6095168490     0.4567404959     0.0008985478
    2      C      -3.4649789088     1.1180791647     0.0003511429
    3      H      -5.3289300495     1.0011767635    -0.5887818617
    4      H      -4.4961073713    -0.4398770550     0.5880775588
    5      H      -3.1256620160     2.0479623776    -0.4497478179
    6      H      -2.4895148054     0.9465482534     0.4492024302
 ----------------------------------------------------------------

    7     -78.5226701562      3.02E-06 Convergence criterion met
    6     -78.5559140567      6.13E-06 Convergence criterion met
 Total energy in the final basis set = -78.55591406

                    Orbital Energies (a.u.)
 --------------------------------------------------------------

 Alpha MOs
 -- Occupied --
-10.2873 -10.2809  -0.8704  -0.6855  -0.5714  -0.5022  -0.4170  -0.3631

                    Cartesian Multipole Moments
 -----------------------------------------------------------------
    Charge (ESU x 10^10)
                -0.0000
    Dipole Moment (Debye)
         X       0.2298      Y       0.1302      Z      -0.0030
       Tot       0.2641
    Quadrupole Moments (Debye-Ang)
        XX     -14.4247     XY       0.2186     YY     -13.0112
        XZ       0.7612     YZ      -1.2986     ZZ     -14.6013

 Total job time:  4.67s(wall), 24.71s(cpu)
        *  Thank you very much for using Q-Chem.  Have a nice day.  *
