 Q-Chem 5.3 (devel), Q-Chem, Inc., Pleasanton, CA (2020)
 Q-Chem 5.3.0 for Intel X86 EM64T Linux

User input:
--------------------------------------------------------------
$rem
   JOBTYPE  sp
   EXCHANGE   omegaB97X-D
   BASIS   6-311+G(2df,2pd)
   UNRESTRICTED   False
   max_scf_cycles   250
   geom_opt_max_cycles   1500
   basis2 6-31G*
   scf_algorithm rca_diis
   SYM_IGNORE  TRUE
   print_input   true
   geom_opt_dmax   80
   pop_mulliken false
   XC_GRID 000075000302
$end

$molecule
0 1
C       -4.5064049407     0.5527482046     -0.0225205942
C       -3.3318319736     1.1574620571     0.0225210895
H       -5.3953665668     0.8860666227     -0.5411805453
H       -4.5807070031     -0.3806504827     0.5223121356
H       -3.2575296329     2.0908604747     -0.5223120853
H       -2.4428698828     0.8241431236     0.5411799997
$end
--------------------------------------------------------------

             Standard Nuclear Orientation (Angstroms)
    I     Atom           X                Y                Z
 ----------------------------------------------------------------
    1      C      -4.5064049407     0.5527482046    -0.0225205942
    2      C      -3.3318319736     1.1574620571     0.0225210895
    3      H      -5.3953665668     0.8860666227    -0.5411805453
    4      H      -4.5807070031    -0.3806504827     0.5223121356
    5      H      -3.2575296329     2.0908604747    -0.5223120853
    6      H      -2.4428698828     0.8241431236     0.5411799997
 ----------------------------------------------------------------

    7     -78.5516341092      6.78E-07 Convergence criterion met
    5     -78.5837145619      4.89E-06 Convergence criterion met
 Total energy in the final basis set = -78.58371456

                    Orbital Energies (a.u.)
 --------------------------------------------------------------

 Alpha MOs
 -- Occupied --
-10.2831 -10.2821  -0.8656  -0.6749  -0.5617  -0.5123  -0.4343  -0.3613

                    Cartesian Multipole Moments
 -----------------------------------------------------------------
    Charge (ESU x 10^10)
                 0.0000
    Dipole Moment (Debye)
         X       0.0000      Y      -0.0000      Z      -0.0000
       Tot       0.0000
    Quadrupole Moments (Debye-Ang)
        XX     -12.1988     XY       0.3521     YY     -13.4109
        XZ       1.0048     YZ      -1.2445     ZZ     -14.5307

 Total job time:  4.36s(wall), 22.86s(cpu)
        *  Thank you very much for using Q-Chem.  Have a nice day.  *
