 Q-Chem 5.3 (devel), Q-Chem, Inc., Pleasanton, CA (2020)
 Q-Chem 5.3.0 for Intel X86 EM64T Linux

User input:
--------------------------------------------------------------
$rem
   JOBTYPE  sp
   EXCHANGE   omegaB97X-D
   BASIS   6-311+G(2df,2pd)
   UNRESTRICTED   False
   max_scf_cycles   250
   geom_opt_max_cycles   1500
   basis2 6-31G*
   scf_algorithm rca_diis
   SYM_IGNORE  TRUE
   print_input   true
   geom_opt_dmax   80
   pop_mulliken false
   XC_GRID 000075000302
$end

$molecule
0 1
C       -4.4965909442     0.5336504236     -0.0072922360
C       -3.3416458306     1.1765595108     0.0072928926
H       -5.3176370540     0.8883767632     -0.5151175093
H       -4.6240530208     -0.4489673601     0.5487766156
H       -3.2141834041     2.1591775976     -0.5487769933
H       -2.5205997462     0.8218330651     0.5151172303
$end
--------------------------------------------------------------

             Standard Nuclear Orientation (Angstroms)
    I     Atom           X                Y                Z
 ----------------------------------------------------------------
    1      C      -4.4965909442     0.5336504236    -0.0072922360
    2      C      -3.3416458306     1.1765595108     0.0072928926
    3      H      -5.3176370540     0.8883767632    -0.5151175093
    4      H      -4.6240530208    -0.4489673601     0.5487766156
    5      H      -3.2141834041     2.1591775976    -0.5487769933
    6      H      -2.5205997462     0.8218330651     0.5151172303
 ----------------------------------------------------------------

    7     -78.5468373064      6.81E-07 Convergence criterion met
    5     -78.5791550403      4.89E-06 Convergence criterion met
 Total energy in the final basis set = -78.57915504

                    Orbital Energies (a.u.)
 --------------------------------------------------------------

 Alpha MOs
 -- Occupied --
-10.2828 -10.2818  -0.8657  -0.6780  -0.5598  -0.5116  -0.4374  -0.3613

                    Cartesian Multipole Moments
 -----------------------------------------------------------------
    Charge (ESU x 10^10)
                 0.0000
    Dipole Moment (Debye)
         X       0.0000      Y      -0.0000      Z      -0.0000
       Tot       0.0000
    Quadrupole Moments (Debye-Ang)
        XX     -12.4661     XY       0.5086     YY     -13.1386
        XZ       0.8135     YZ      -1.3538     ZZ     -14.5283

 Total job time:  4.37s(wall), 22.90s(cpu)
        *  Thank you very much for using Q-Chem.  Have a nice day.  *
