 Q-Chem 5.3 (devel), Q-Chem, Inc., Pleasanton, CA (2020)
 Q-Chem 5.3.0 for Intel X86 EM64T Linux

User input:
--------------------------------------------------------------
$rem
   JOBTYPE  sp
   EXCHANGE   omegaB97X-D
   BASIS   6-311+G(2df,2pd)
   UNRESTRICTED   False
   max_scf_cycles   250
   geom_opt_max_cycles   1500
   basis2 6-31G*
   scf_algorithm rca_diis
   SYM_IGNORE  TRUE
   print_input   true
   geom_opt_dmax   80
   pop_mulliken false
   XC_GRID 000075000302
$end

$molecule
0 1
C       -4.5085652390     0.5143716242     0.0002569004
C       -3.3640608836     1.1757687688     -0.0001804636
H       -5.3330835214     0.8663300261     -0.5070762251
H       -4.6153551931     -0.3756770102     0.5070014130
H       -3.2410696430     2.1574509882     -0.5572265355
H       -2.4525755199     0.7923856030     0.5572249107
$end
--------------------------------------------------------------

             Standard Nuclear Orientation (Angstroms)
    I     Atom           X                Y                Z
 ----------------------------------------------------------------
    1      C      -4.5085652390     0.5143716242     0.0002569004
    2      C      -3.3640608836     1.1757687688    -0.0001804636
    3      H      -5.3330835214     0.8663300261    -0.5070762251
    4      H      -4.6153551931    -0.3756770102     0.5070014130
    5      H      -3.2410696430     2.1574509882    -0.5572265355
    6      H      -2.4525755199     0.7923856030     0.5572249107
 ----------------------------------------------------------------

    7     -78.5470569280      5.72E-06 Convergence criterion met
    5     -78.5793533505      6.74E-06 Convergence criterion met
 Total energy in the final basis set = -78.57935335

                    Orbital Energies (a.u.)
 --------------------------------------------------------------

 Alpha MOs
 -- Occupied --
-10.2931 -10.2714  -0.8660  -0.6754  -0.5634  -0.5087  -0.4380  -0.3612

                    Cartesian Multipole Moments
 -----------------------------------------------------------------
    Charge (ESU x 10^10)
                -0.0000
    Dipole Moment (Debye)
         X      -0.0550      Y      -0.0319      Z       0.0001
       Tot       0.0635
    Quadrupole Moments (Debye-Ang)
        XX     -12.0568     XY       0.6122     YY     -13.1553
        XZ       0.7898     YZ      -1.3680     ZZ     -14.5282

 Total job time:  4.31s(wall), 22.75s(cpu)
        *  Thank you very much for using Q-Chem.  Have a nice day.  *
