 Q-Chem 5.3 (devel), Q-Chem, Inc., Pleasanton, CA (2020)
 Q-Chem 5.3.0 for Intel X86 EM64T Linux

User input:
--------------------------------------------------------------
$rem
   JOBTYPE  sp
   EXCHANGE   omegaB97X-D
   BASIS   6-311+G(2df,2pd)
   UNRESTRICTED   False
   max_scf_cycles   250
   geom_opt_max_cycles   1500
   basis2 6-31G*
   scf_algorithm rca_diis
   SYM_IGNORE  TRUE
   print_input   true
   geom_opt_dmax   80
   pop_mulliken false
   XC_GRID 000075000302
$end

$molecule
0 1
C       -4.5015865962     0.5430166484     -0.0147988358
C       -3.3366500730     1.1671929760     0.0147996901
H       -5.2760827960     0.8841158760     -0.4978052858
H       -4.6423914021     -0.4863509518     0.5651697054
H       -3.1958448458     2.1965615849     -0.5651702695
H       -2.5621542867     0.8260938666     0.4978049956
$end
--------------------------------------------------------------

             Standard Nuclear Orientation (Angstroms)
    I     Atom           X                Y                Z
 ----------------------------------------------------------------
    1      C      -4.5015865962     0.5430166484    -0.0147988358
    2      C      -3.3366500730     1.1671929760     0.0147996901
    3      H      -5.2760827960     0.8841158760    -0.4978052858
    4      H      -4.6423914021    -0.4863509518     0.5651697054
    5      H      -3.1958448458     2.1965615849    -0.5651702695
    6      H      -2.5621542867     0.8260938666     0.4978049956
 ----------------------------------------------------------------

    7     -78.5229954458      7.18E-07 Convergence criterion met
    5     -78.5562815746      4.93E-06 Convergence criterion met
 Total energy in the final basis set = -78.55628157

                    Orbital Energies (a.u.)
 --------------------------------------------------------------

 Alpha MOs
 -- Occupied --
-10.2826 -10.2816  -0.8680  -0.6868  -0.5549  -0.5184  -0.4330  -0.3620

                    Cartesian Multipole Moments
 -----------------------------------------------------------------
    Charge (ESU x 10^10)
                -0.0000
    Dipole Moment (Debye)
         X      -0.0000      Y      -0.0000      Z      -0.0000
       Tot       0.0000
    Quadrupole Moments (Debye-Ang)
        XX     -12.4577     XY       0.4753     YY     -13.1746
        XZ       0.8333     YZ      -1.3374     ZZ     -14.5213

 Total job time:  4.37s(wall), 22.98s(cpu)
        *  Thank you very much for using Q-Chem.  Have a nice day.  *
