 Q-Chem 5.3 (devel), Q-Chem, Inc., Pleasanton, CA (2020)
 Q-Chem 5.3.0 for Intel X86 EM64T Linux

User input:
--------------------------------------------------------------
$rem
   JOBTYPE  sp
   EXCHANGE   omegaB97X-D
   BASIS   6-311+G(2df,2pd)
   UNRESTRICTED   False
   max_scf_cycles   250
   geom_opt_max_cycles   1500
   basis2 6-31G*
   scf_algorithm rca_diis
   SYM_IGNORE  TRUE
   print_input   true
   geom_opt_dmax   80
   pop_mulliken false
   XC_GRID 000075000302
$end

$molecule
0 1
C       -4.4569823972     0.5444772200     0.0001441185
C       -3.3124771083     1.2058732415     -0.0002941645
H       -5.4121403783     0.9432561794     -0.5821830414
H       -4.5884407168     -0.4830316973     0.5822211970
H       -3.2134235851     2.0501210395     -0.4817617839
H       -2.5312458144     0.8699340169     0.4818736744
$end
--------------------------------------------------------------

             Standard Nuclear Orientation (Angstroms)
    I     Atom           X                Y                Z
 ----------------------------------------------------------------
    1      C      -4.4569823972     0.5444772200     0.0001441185
    2      C      -3.3124771083     1.2058732415    -0.0002941645
    3      H      -5.4121403783     0.9432561794    -0.5821830414
    4      H      -4.5884407168    -0.4830316973     0.5822211970
    5      H      -3.2134235851     2.0501210395    -0.4817617839
    6      H      -2.5312458144     0.8699340169     0.4818736744
 ----------------------------------------------------------------

    7     -78.5240014149      8.11E-06 Convergence criterion met
    5     -78.5571950727      9.83E-06 Convergence criterion met
 Total energy in the final basis set = -78.55719507

                    Orbital Energies (a.u.)
 --------------------------------------------------------------

 Alpha MOs
 -- Occupied --
-10.3033 -10.2603  -0.8692  -0.6772  -0.5687  -0.5073  -0.4354  -0.3617

                    Cartesian Multipole Moments
 -----------------------------------------------------------------
    Charge (ESU x 10^10)
                -0.0000
    Dipole Moment (Debye)
         X       0.1080      Y       0.0626      Z      -0.0003
       Tot       0.1249
    Quadrupole Moments (Debye-Ang)
        XX     -13.3211     XY       0.3849     YY     -12.9848
        XZ       0.7899     YZ      -1.3657     ZZ     -14.5194

 Total job time:  4.37s(wall), 23.03s(cpu)
        *  Thank you very much for using Q-Chem.  Have a nice day.  *
