 Q-Chem 5.3 (devel), Q-Chem, Inc., Pleasanton, CA (2020)
 Q-Chem 5.3.0 for Intel X86 EM64T Linux

User input:
--------------------------------------------------------------
$rem
   JOBTYPE  sp
   EXCHANGE   omegaB97X-D
   BASIS   6-311+G(2df,2pd)
   UNRESTRICTED   False
   max_scf_cycles   250
   geom_opt_max_cycles   1500
   basis2 6-31G*
   scf_algorithm rca_diis
   SYM_IGNORE  TRUE
   print_input   true
   geom_opt_dmax   80
   pop_mulliken false
   XC_GRID 000075000302
$end

$molecule
0 1
C       -4.3349143699     0.6141349648     -0.0005126440
C       -3.1903492905     1.2754276090     -0.0011467354
H       -5.3360788846     0.7174990852     -0.4163000049
H       -4.7463632861     -0.3036227413     0.4170165399
H       -3.3787045584     2.1492531605     -0.6003623834
H       -2.5282996105     0.6779379220     0.6013052278
$end
--------------------------------------------------------------

             Standard Nuclear Orientation (Angstroms)
    I     Atom           X                Y                Z
 ----------------------------------------------------------------
    1      C      -4.3349143699     0.6141349648    -0.0005126440
    2      C      -3.1903492905     1.2754276090    -0.0011467354
    3      H      -5.3360788846     0.7174990852    -0.4163000049
    4      H      -4.7463632861    -0.3036227413     0.4170165399
    5      H      -3.3787045584     2.1492531605    -0.6003623834
    6      H      -2.5282996105     0.6779379220     0.6013052278
 ----------------------------------------------------------------

    7     -78.4973921669      3.65E-06 Convergence criterion met
    6     -78.5316662247      5.45E-06 Convergence criterion met
 Total energy in the final basis set = -78.53166622

                    Orbital Energies (a.u.)
 --------------------------------------------------------------

 Alpha MOs
 -- Occupied --
-10.2895 -10.2814  -0.8747  -0.6945  -0.5774  -0.4971  -0.4015  -0.3646

                    Cartesian Multipole Moments
 -----------------------------------------------------------------
    Charge (ESU x 10^10)
                -0.0000
    Dipole Moment (Debye)
         X      -0.3266      Y      -0.1852      Z       0.0041
       Tot       0.3755
    Quadrupole Moments (Debye-Ang)
        XX     -10.1658     XY       0.9796     YY     -13.6537
        XZ       0.7005     YZ      -1.2346     ZZ     -14.6574

 Total job time:  4.92s(wall), 26.20s(cpu)
        *  Thank you very much for using Q-Chem.  Have a nice day.  *
