 Q-Chem 5.3 (devel), Q-Chem, Inc., Pleasanton, CA (2020)
 Q-Chem 5.3.0 for Intel X86 EM64T Linux

User input:
--------------------------------------------------------------
$rem
   JOBTYPE  sp
   EXCHANGE   omegaB97X-D
   BASIS   6-311+G(2df,2pd)
   UNRESTRICTED   False
   max_scf_cycles   250
   geom_opt_max_cycles   1500
   basis2 6-31G*
   scf_algorithm rca_diis
   SYM_IGNORE  TRUE
   print_input   true
   geom_opt_dmax   80
   pop_mulliken false
   XC_GRID 000075000302
$end

$molecule
0 1
C       -4.5780603553     0.4746234201     0.0005102005
C       -3.2601638323     1.2355645735     -0.0005460017
H       -5.3313168462     1.0042513505     -0.5910057480
H       -4.4949727592     -0.4432083094     0.5908070112
H       -3.3432734290     2.1534348765     -0.5907798088
H       -2.5069227778     0.7059640889     0.5910143469
$end
--------------------------------------------------------------

             Standard Nuclear Orientation (Angstroms)
    I     Atom           X                Y                Z
 ----------------------------------------------------------------
    1      C      -4.5780603553     0.4746234201     0.0005102005
    2      C      -3.2601638323     1.2355645735    -0.0005460017
    3      H      -5.3313168462     1.0042513505    -0.5910057480
    4      H      -4.4949727592    -0.4432083094     0.5908070112
    5      H      -3.3432734290     2.1534348765    -0.5907798088
    6      H      -2.5069227778     0.7059640889     0.5910143469
 ----------------------------------------------------------------

    8     -78.5068818327      7.81E-08 Convergence criterion met
    5     -78.5393533460      4.22E-06 Convergence criterion met
 Total energy in the final basis set = -78.53935335

                    Orbital Energies (a.u.)
 --------------------------------------------------------------

 Alpha MOs
 -- Occupied --
-10.3107 -10.3105  -0.8327  -0.6707  -0.5747  -0.4786  -0.4430  -0.3325

                    Cartesian Multipole Moments
 -----------------------------------------------------------------
    Charge (ESU x 10^10)
                -0.0000
    Dipole Moment (Debye)
         X      -0.0000      Y       0.0001      Z       0.0001
       Tot       0.0001
    Quadrupole Moments (Debye-Ang)
        XX     -13.4138     XY      -0.1915     YY     -13.1895
        XZ       1.2411     YZ      -2.1462     ZZ     -14.8346

 Total job time:  4.70s(wall), 25.01s(cpu)
        *  Thank you very much for using Q-Chem.  Have a nice day.  *
