 Q-Chem 5.3 (devel), Q-Chem, Inc., Pleasanton, CA (2020)
 Q-Chem 5.3.0 for Intel X86 EM64T Linux

User input:
--------------------------------------------------------------
$rem
   JOBTYPE  sp
   EXCHANGE   omegaB97X-D
   BASIS   6-311+G(2df,2pd)
   UNRESTRICTED   False
   max_scf_cycles   250
   geom_opt_max_cycles   1500
   basis2 6-31G*
   scf_algorithm rca_diis
   SYM_IGNORE  TRUE
   print_input   true
   geom_opt_dmax   80
   pop_mulliken false
   XC_GRID 000075000302
$end

$molecule
0 1
C       -4.4552721435     0.4713127429     0.0456135928
C       -3.3829646218     1.2388973642     -0.0456133639
H       -5.2770766746     0.9063660980     -0.5118280720
H       -4.6501907942     -0.4651225022     0.5493936457
H       -3.1880457444     2.1753320847     -0.5493942666
H       -2.5611600214     0.8038442125     0.5118284640
$end
--------------------------------------------------------------

             Standard Nuclear Orientation (Angstroms)
    I     Atom           X                Y                Z
 ----------------------------------------------------------------
    1      C      -4.4552721435     0.4713127429     0.0456135928
    2      C      -3.3829646218     1.2388973642    -0.0456133639
    3      H      -5.2770766746     0.9063660980    -0.5118280720
    4      H      -4.6501907942    -0.4651225022     0.5493936457
    5      H      -3.1880457444     2.1753320847    -0.5493942666
    6      H      -2.5611600214     0.8038442125     0.5118284640
 ----------------------------------------------------------------

    7     -78.5427511070      7.26E-07 Convergence criterion met
    5     -78.5750660565      4.93E-06 Convergence criterion met
 Total energy in the final basis set = -78.57506606

                    Orbital Energies (a.u.)
 --------------------------------------------------------------

 Alpha MOs
 -- Occupied --
-10.2837 -10.2827  -0.8674  -0.6750  -0.5621  -0.5202  -0.4221  -0.3619

                    Cartesian Multipole Moments
 -----------------------------------------------------------------
    Charge (ESU x 10^10)
                -0.0000
    Dipole Moment (Debye)
         X       0.0000      Y      -0.0000      Z      -0.0000
       Tot       0.0000
    Quadrupole Moments (Debye-Ang)
        XX     -13.1412     XY       0.8554     YY     -12.5145
        XZ       0.3635     YZ      -1.6137     ZZ     -14.5294

 Total job time:  4.35s(wall), 22.87s(cpu)
        *  Thank you very much for using Q-Chem.  Have a nice day.  *
