 Q-Chem 5.3 (devel), Q-Chem, Inc., Pleasanton, CA (2020)
 Q-Chem 5.3.0 for Intel X86 EM64T Linux

User input:
--------------------------------------------------------------
$rem
   JOBTYPE  sp
   EXCHANGE   omegaB97X-D
   BASIS   6-311+G(2df,2pd)
   UNRESTRICTED   False
   max_scf_cycles   250
   geom_opt_max_cycles   1500
   basis2 6-31G*
   scf_algorithm rca_diis
   SYM_IGNORE  TRUE
   print_input   true
   geom_opt_dmax   80
   pop_mulliken false
   XC_GRID 000075000302
$end

$molecule
0 1
C       -4.4724417605     0.5355715655     0.0001251320
C       -3.3657975521     1.1746452072     -0.0001155768
H       -5.5175957120     0.9592130379     -0.6292321018
H       -4.6277174950     -0.5834059455     0.6297483892
H       -3.2105171127     2.2936106061     -0.6297516594
H       -2.3206403676     0.7509955289     0.6292258168
$end
--------------------------------------------------------------

             Standard Nuclear Orientation (Angstroms)
    I     Atom           X                Y                Z
 ----------------------------------------------------------------
    1      C      -4.4724417605     0.5355715655     0.0001251320
    2      C      -3.3657975521     1.1746452072    -0.0001155768
    3      H      -5.5175957120     0.9592130379    -0.6292321018
    4      H      -4.6277174950    -0.5834059455     0.6297483892
    5      H      -3.2105171127     2.2936106061    -0.6297516594
    6      H      -2.3206403676     0.7509955289     0.6292258168
 ----------------------------------------------------------------

    7     -78.4755095586      1.55E-06 Convergence criterion met
    5     -78.5066149295      6.08E-06 Convergence criterion met
 Total energy in the final basis set = -78.50661493

                    Orbital Energies (a.u.)
 --------------------------------------------------------------

 Alpha MOs
 -- Occupied --
-10.3189 -10.3175  -0.8630  -0.6176  -0.5238  -0.4957  -0.3950  -0.3741

                    Cartesian Multipole Moments
 -----------------------------------------------------------------
    Charge (ESU x 10^10)
                -0.0000
    Dipole Moment (Debye)
         X       0.0000      Y      -0.0000      Z      -0.0000
       Tot       0.0000
    Quadrupole Moments (Debye-Ang)
        XX     -12.9101     XY       0.4118     YY     -13.3855
        XZ       0.9790     YZ      -1.6921     ZZ     -15.0065

 Total job time:  4.30s(wall), 22.66s(cpu)
        *  Thank you very much for using Q-Chem.  Have a nice day.  *
