 Q-Chem 5.3 (devel), Q-Chem, Inc., Pleasanton, CA (2020)
 Q-Chem 5.3.0 for Intel X86 EM64T Linux

User input:
--------------------------------------------------------------
$rem
   JOBTYPE  sp
   EXCHANGE   omegaB97X-D
   BASIS   6-311+G(2df,2pd)
   UNRESTRICTED   False
   max_scf_cycles   250
   geom_opt_max_cycles   1500
   basis2 6-31G*
   scf_algorithm rca_diis
   SYM_IGNORE  TRUE
   print_input   true
   geom_opt_dmax   80
   pop_mulliken false
   XC_GRID 000075000302
$end

$molecule
0 1
C       -4.3973920265     0.4343993309     -0.1760425954
C       -3.4408526145     1.2758365133     0.1760728124
H       -5.3280002771     0.9094079842     -0.4597526664
H       -4.6097820001     -0.3345348730     0.5556967802
H       -3.2284386302     2.0447191462     -0.5557165727
H       -2.5102444516     0.8008018986     0.4597422418
$end
--------------------------------------------------------------

             Standard Nuclear Orientation (Angstroms)
    I     Atom           X                Y                Z
 ----------------------------------------------------------------
    1      C      -4.3973920265     0.4343993309    -0.1760425954
    2      C      -3.4408526145     1.2758365133     0.1760728124
    3      H      -5.3280002771     0.9094079842    -0.4597526664
    4      H      -4.6097820001    -0.3345348730     0.5556967802
    5      H      -3.2284386302     2.0447191462    -0.5557165727
    6      H      -2.5102444516     0.8008018986     0.4597422418
 ----------------------------------------------------------------

    7     -78.5142225310      9.93E-07 Convergence criterion met
    5     -78.5459776038      6.14E-06 Convergence criterion met
 Total energy in the final basis set = -78.54597760

                    Orbital Energies (a.u.)
 --------------------------------------------------------------

 Alpha MOs
 -- Occupied --
-10.2854 -10.2844  -0.8784  -0.6780  -0.5575  -0.4935  -0.4218  -0.3759

                    Cartesian Multipole Moments
 -----------------------------------------------------------------
    Charge (ESU x 10^10)
                -0.0000
    Dipole Moment (Debye)
         X      -0.0001      Y      -0.0002      Z      -0.0002
       Tot       0.0003
    Quadrupole Moments (Debye-Ang)
        XX     -12.6013     XY       0.2260     YY     -13.7623
        XZ       0.1026     YZ      -1.2926     ZZ     -14.4956

 Total job time:  4.35s(wall), 22.88s(cpu)
        *  Thank you very much for using Q-Chem.  Have a nice day.  *
