 Q-Chem 5.3 (devel), Q-Chem, Inc., Pleasanton, CA (2020)
 Q-Chem 5.3.0 for Intel X86 EM64T Linux

User input:
--------------------------------------------------------------
$rem
   JOBTYPE  sp
   EXCHANGE   omegaB97X-D
   BASIS   6-311+G(2df,2pd)
   UNRESTRICTED   False
   max_scf_cycles   250
   geom_opt_max_cycles   1500
   basis2 6-31G*
   scf_algorithm rca_diis
   SYM_IGNORE  TRUE
   print_input   true
   geom_opt_dmax   80
   pop_mulliken false
   XC_GRID 000075000302
$end

$molecule
0 1
C       -4.4741759380     0.5344411980     0.0001804714
C       -3.3296714061     1.1958383658     -0.0002568519
H       -5.3856603712     0.9178242053     -0.5572245404
H       -4.5971669930     -0.4472405226     0.5572262259
H       -3.2228814961     2.0858864555     -0.5070011018
H       -2.5051537955     0.8438802981     0.5070757969
$end
--------------------------------------------------------------

             Standard Nuclear Orientation (Angstroms)
    I     Atom           X                Y                Z
 ----------------------------------------------------------------
    1      C      -4.4741759380     0.5344411980     0.0001804714
    2      C      -3.3296714061     1.1958383658    -0.0002568519
    3      H      -5.3856603712     0.9178242053    -0.5572245404
    4      H      -4.5971669930    -0.4472405226     0.5572262259
    5      H      -3.2228814961     2.0858864555    -0.5070011018
    6      H      -2.5051537955     0.8438802981     0.5070757969
 ----------------------------------------------------------------

    7     -78.5470568864      5.72E-06 Convergence criterion met
    5     -78.5793533247      6.74E-06 Convergence criterion met
 Total energy in the final basis set = -78.57935332

                    Orbital Energies (a.u.)
 --------------------------------------------------------------

 Alpha MOs
 -- Occupied --
-10.2931 -10.2714  -0.8660  -0.6754  -0.5634  -0.5087  -0.4380  -0.3612

                    Cartesian Multipole Moments
 -----------------------------------------------------------------
    Charge (ESU x 10^10)
                -0.0000
    Dipole Moment (Debye)
         X       0.0550      Y       0.0319      Z      -0.0001
       Tot       0.0635
    Quadrupole Moments (Debye-Ang)
        XX     -12.9186     XY       0.4563     YY     -13.0462
        XZ       0.7909     YZ      -1.3682     ZZ     -14.5282

 Total job time:  4.35s(wall), 22.90s(cpu)
        *  Thank you very much for using Q-Chem.  Have a nice day.  *
