 Q-Chem 5.3 (devel), Q-Chem, Inc., Pleasanton, CA (2020)
 Q-Chem 5.3.0 for Intel X86 EM64T Linux

User input:
--------------------------------------------------------------
$rem
   JOBTYPE  sp
   EXCHANGE   omegaB97X-D
   BASIS   6-311+G(2df,2pd)
   UNRESTRICTED   False
   max_scf_cycles   250
   geom_opt_max_cycles   1500
   basis2 6-31G*
   scf_algorithm rca_diis
   SYM_IGNORE  TRUE
   print_input   true
   geom_opt_dmax   80
   pop_mulliken false
   XC_GRID 000075000302
$end

$molecule
0 1
C       -4.4744028765     0.4974774529     0.0227165925
C       -3.3638343342     1.2127336850     -0.0227167806
H       -5.4849527999     0.9009725974     -0.5820312333
H       -4.5550747504     -0.2981313897     0.4808614263
H       -3.2831623511     2.0083400706     -0.4808609983
H       -2.3532828879     0.8092375839     0.5820309933
$end
--------------------------------------------------------------

             Standard Nuclear Orientation (Angstroms)
    I     Atom           X                Y                Z
 ----------------------------------------------------------------
    1      C      -4.4744028765     0.4974774529     0.0227165925
    2      C      -3.3638343342     1.2127336850    -0.0227167806
    3      H      -5.4849527999     0.9009725974    -0.5820312333
    4      H      -4.5550747504    -0.2981313897     0.4808614263
    5      H      -3.2831623511     2.0083400706    -0.4808609983
    6      H      -2.3532828879     0.8092375839     0.5820309933
 ----------------------------------------------------------------

    7     -78.4813158837      7.91E-07 Convergence criterion met
    5     -78.5163232961      5.00E-06 Convergence criterion met
 Total energy in the final basis set = -78.51632330

                    Orbital Energies (a.u.)
 --------------------------------------------------------------

 Alpha MOs
 -- Occupied --
-10.2827 -10.2817  -0.8716  -0.6997  -0.5478  -0.5283  -0.4267  -0.3633

                    Cartesian Multipole Moments
 -----------------------------------------------------------------
    Charge (ESU x 10^10)
                 0.0000
    Dipole Moment (Debye)
         X      -0.0000      Y      -0.0000      Z      -0.0000
       Tot       0.0000
    Quadrupole Moments (Debye-Ang)
        XX     -12.6545     XY       0.5389     YY     -13.0291
        XZ       0.7209     YZ      -1.3972     ZZ     -14.5135

 Total job time:  4.36s(wall), 22.98s(cpu)
        *  Thank you very much for using Q-Chem.  Have a nice day.  *
