 Q-Chem 5.3 (devel), Q-Chem, Inc., Pleasanton, CA (2020)
 Q-Chem 5.3.0 for Intel X86 EM64T Linux

User input:
--------------------------------------------------------------
$rem
   JOBTYPE  sp
   EXCHANGE   omegaB97X-D
   BASIS   6-311+G(2df,2pd)
   UNRESTRICTED   False
   max_scf_cycles   250
   geom_opt_max_cycles   1500
   basis2 6-31G*
   scf_algorithm rca_diis
   SYM_IGNORE  TRUE
   print_input   true
   geom_opt_dmax   80
   pop_mulliken false
   XC_GRID 000075000302
$end

$molecule
0 1
C       -4.4905718593     0.5230431102     -0.0011779935
C       -3.3461300235     1.1845484732     -0.0017687996
H       -5.3317400087     0.8462132778     -0.6011679427
H       -4.6345603054     -0.3640036754     0.6024500745
H       -3.2571948435     2.1628140020     -0.4568085282
H       -2.4545129596     0.7780148122     0.4584731896
$end
--------------------------------------------------------------

             Standard Nuclear Orientation (Angstroms)
    I     Atom           X                Y                Z
 ----------------------------------------------------------------
    1      C      -4.4905718593     0.5230431102    -0.0011779935
    2      C      -3.3461300235     1.1845484732    -0.0017687996
    3      H      -5.3317400087     0.8462132778    -0.6011679427
    4      H      -4.6345603054    -0.3640036754     0.6024500745
    5      H      -3.2571948435     2.1628140020    -0.4568085282
    6      H      -2.4545129596     0.7780148122     0.4584731896
 ----------------------------------------------------------------

    7     -78.5520451409      7.32E-07 Convergence criterion met
    5     -78.5841151428      4.94E-06 Convergence criterion met
 Total energy in the final basis set = -78.58411514

                    Orbital Energies (a.u.)
 --------------------------------------------------------------

 Alpha MOs
 -- Occupied --
-10.2830 -10.2820  -0.8651  -0.6749  -0.5610  -0.5092  -0.4422  -0.3574

                    Cartesian Multipole Moments
 -----------------------------------------------------------------
    Charge (ESU x 10^10)
                -0.0000
    Dipole Moment (Debye)
         X      -0.0028      Y       0.0049      Z       0.0075
       Tot       0.0094
    Quadrupole Moments (Debye-Ang)
        XX     -12.4878     XY       0.5108     YY     -13.1145
        XZ       0.7403     YZ      -1.3248     ZZ     -14.5187

 Total job time:  4.29s(wall), 22.61s(cpu)
        *  Thank you very much for using Q-Chem.  Have a nice day.  *
