 Q-Chem 5.3 (devel), Q-Chem, Inc., Pleasanton, CA (2020)
 Q-Chem 5.3.0 for Intel X86 EM64T Linux

User input:
--------------------------------------------------------------
$rem
   JOBTYPE  sp
   EXCHANGE   omegaB97X-D
   BASIS   6-311+G(2df,2pd)
   UNRESTRICTED   False
   max_scf_cycles   250
   geom_opt_max_cycles   1500
   basis2 6-31G*
   scf_algorithm rca_diis
   SYM_IGNORE  TRUE
   print_input   true
   geom_opt_dmax   80
   pop_mulliken false
   XC_GRID 000075000302
$end

$molecule
0 1
C       -4.5658334230     0.6557969295     0.2113441110
C       -3.4200368682     1.3149510394     0.2130897962
H       -5.2238273648     0.8432715425     -0.6275874140
H       -4.5095576247     -0.4054448751     0.4178920177
H       -3.2638420674     1.9977149602     -0.6123186408
H       -2.5316126519     0.7243404035     0.3975801299
$end
--------------------------------------------------------------

             Standard Nuclear Orientation (Angstroms)
    I     Atom           X                Y                Z
 ----------------------------------------------------------------
    1      C      -4.5658334230     0.6557969295     0.2113441110
    2      C      -3.4200368682     1.3149510394     0.2130897962
    3      H      -5.2238273648     0.8432715425    -0.6275874140
    4      H      -4.5095576247    -0.4054448751     0.4178920177
    5      H      -3.2638420674     1.9977149602    -0.6123186408
    6      H      -2.5316126519     0.7243404035     0.3975801299
 ----------------------------------------------------------------

    7     -78.5159378421      1.26E-06 Convergence criterion met
    5     -78.5487036777      8.49E-06 Convergence criterion met
 Total energy in the final basis set = -78.54870368

                    Orbital Energies (a.u.)
 --------------------------------------------------------------

 Alpha MOs
 -- Occupied --
-10.2851 -10.2841  -0.8764  -0.6714  -0.5605  -0.5102  -0.4249  -0.3631

                    Cartesian Multipole Moments
 -----------------------------------------------------------------
    Charge (ESU x 10^10)
                -0.0000
    Dipole Moment (Debye)
         X       0.3090      Y      -0.5429      Z      -0.8834
       Tot       1.0819
    Quadrupole Moments (Debye-Ang)
        XX     -15.8786     XY       2.4765     YY     -14.4469
        XZ       4.0709     YZ      -1.8333     ZZ     -14.4511

 Total job time:  4.38s(wall), 22.97s(cpu)
        *  Thank you very much for using Q-Chem.  Have a nice day.  *
