 Q-Chem 5.3 (devel), Q-Chem, Inc., Pleasanton, CA (2020)
 Q-Chem 5.3.0 for Intel X86 EM64T Linux

User input:
--------------------------------------------------------------
$rem
   JOBTYPE  sp
   EXCHANGE   omegaB97X-D
   BASIS   6-311+G(2df,2pd)
   UNRESTRICTED   False
   max_scf_cycles   250
   geom_opt_max_cycles   1500
   basis2 6-31G*
   scf_algorithm rca_diis
   SYM_IGNORE  TRUE
   print_input   true
   geom_opt_dmax   80
   pop_mulliken false
   XC_GRID 000075000302
$end

$molecule
0 1
C       -4.5208511144     0.6162404890     0.1332565476
C       -3.3173742341     1.0939575985     -0.1332807430
H       -5.3197267884     0.8631067122     -0.5543427498
H       -4.5859430795     -0.4065029485     0.4823027810
H       -3.2522970760     2.1167167420     -0.4822840871
H       -2.5185177077     0.8471114070     0.5543482514
$end
--------------------------------------------------------------

             Standard Nuclear Orientation (Angstroms)
    I     Atom           X                Y                Z
 ----------------------------------------------------------------
    1      C      -4.5208511144     0.6162404890     0.1332565476
    2      C      -3.3173742341     1.0939575985    -0.1332807430
    3      H      -5.3197267884     0.8631067122    -0.5543427498
    4      H      -4.5859430795    -0.4065029485     0.4823027810
    5      H      -3.2522970760     2.1167167420    -0.4822840871
    6      H      -2.5185177077     0.8471114070     0.5543482514
 ----------------------------------------------------------------

    7     -78.5326139633      8.54E-07 Convergence criterion met
    5     -78.5643764456      5.60E-06 Convergence criterion met
 Total energy in the final basis set = -78.56437645

                    Orbital Energies (a.u.)
 --------------------------------------------------------------

 Alpha MOs
 -- Occupied --
-10.2843 -10.2833  -0.8724  -0.6766  -0.5592  -0.5004  -0.4294  -0.3694

                    Cartesian Multipole Moments
 -----------------------------------------------------------------
    Charge (ESU x 10^10)
                -0.0000
    Dipole Moment (Debye)
         X      -0.0001      Y       0.0000      Z       0.0001
       Tot       0.0001
    Quadrupole Moments (Debye-Ang)
        XX     -12.9997     XY       0.6171     YY     -13.0320
        XZ       1.0352     YZ      -0.9574     ZZ     -14.5122

 Total job time:  4.37s(wall), 22.98s(cpu)
        *  Thank you very much for using Q-Chem.  Have a nice day.  *
