 Q-Chem 5.3 (devel), Q-Chem, Inc., Pleasanton, CA (2020)
 Q-Chem 5.3.0 for Intel X86 EM64T Linux

User input:
--------------------------------------------------------------
$rem
   JOBTYPE  sp
   EXCHANGE   omegaB97X-D
   BASIS   6-311+G(2df,2pd)
   UNRESTRICTED   False
   max_scf_cycles   250
   geom_opt_max_cycles   1500
   basis2 6-31G*
   scf_algorithm rca_diis
   SYM_IGNORE  TRUE
   print_input   true
   geom_opt_dmax   80
   pop_mulliken false
   XC_GRID 000075000302
$end

$molecule
0 1
C       -4.5150389485     0.5833872727     0.0890114722
C       -3.3231866280     1.1268094109     -0.0890360981
H       -5.3388164790     0.8746914665     -0.5501299619
H       -4.5940163077     -0.4141514757     0.5021895940
H       -3.2442246497     2.1243663308     -0.5021736049
H       -2.4994269871     0.8355269949     0.5501385987
$end
--------------------------------------------------------------

             Standard Nuclear Orientation (Angstroms)
    I     Atom           X                Y                Z
 ----------------------------------------------------------------
    1      C      -4.5150389485     0.5833872727     0.0890114722
    2      C      -3.3231866280     1.1268094109    -0.0890360981
    3      H      -5.3388164790     0.8746914665    -0.5501299619
    4      H      -4.5940163077    -0.4141514757     0.5021895940
    5      H      -3.2442246497     2.1243663308    -0.5021736049
    6      H      -2.4994269871     0.8355269949     0.5501385987
 ----------------------------------------------------------------

    7     -78.5451265988      7.66E-07 Convergence criterion met
    5     -78.5770013800      5.21E-06 Convergence criterion met
 Total energy in the final basis set = -78.57700138

                    Orbital Energies (a.u.)
 --------------------------------------------------------------

 Alpha MOs
 -- Occupied --
-10.2835 -10.2825  -0.8683  -0.6756  -0.5605  -0.5052  -0.4348  -0.3647

                    Cartesian Multipole Moments
 -----------------------------------------------------------------
    Charge (ESU x 10^10)
                -0.0000
    Dipole Moment (Debye)
         X      -0.0001      Y       0.0000      Z       0.0001
       Tot       0.0001
    Quadrupole Moments (Debye-Ang)
        XX     -12.7771     XY       0.6015     YY     -13.0145
        XZ       0.9814     YZ      -1.1398     ZZ     -14.5224

 Total job time:  4.31s(wall), 22.73s(cpu)
        *  Thank you very much for using Q-Chem.  Have a nice day.  *
