 Q-Chem 5.3 (devel), Q-Chem, Inc., Pleasanton, CA (2020)
 Q-Chem 5.3.0 for Intel X86 EM64T Linux

User input:
--------------------------------------------------------------
$rem
   JOBTYPE  sp
   EXCHANGE   omegaB97X-D
   BASIS   6-311+G(2df,2pd)
   UNRESTRICTED   False
   max_scf_cycles   250
   geom_opt_max_cycles   1500
   basis2 6-31G*
   scf_algorithm rca_diis
   SYM_IGNORE  TRUE
   print_input   true
   geom_opt_dmax   80
   pop_mulliken false
   XC_GRID 000075000302
$end

$molecule
0 1
C       -4.5349916248     0.6000698844     -0.0614770402
C       -3.3906770662     1.2617956358     -0.0613569192
H       -5.5229844930     0.7102979321     -0.4835895344
H       -4.3587255260     -0.2821977863     0.5451552732
H       -2.9950553786     2.1765407294     -0.4775234158
H       -2.7122759114     0.6641236047     0.5387916364
$end
--------------------------------------------------------------

             Standard Nuclear Orientation (Angstroms)
    I     Atom           X                Y                Z
 ----------------------------------------------------------------
    1      C      -4.5349916248     0.6000698844    -0.0614770402
    2      C      -3.3906770662     1.2617956358    -0.0613569192
    3      H      -5.5229844930     0.7102979321    -0.4835895344
    4      H      -4.3587255260    -0.2821977863     0.5451552732
    5      H      -2.9950553786     2.1765407294    -0.4775234158
    6      H      -2.7122759114     0.6641236047     0.5387916364
 ----------------------------------------------------------------

    7     -78.5352051829      1.19E-06 Convergence criterion met
    5     -78.5678879961      5.41E-06 Convergence criterion met
 Total energy in the final basis set = -78.56788800

                    Orbital Energies (a.u.)
 --------------------------------------------------------------

 Alpha MOs
 -- Occupied --
-10.2854 -10.2844  -0.8726  -0.6734  -0.5696  -0.5075  -0.4249  -0.3631

                    Cartesian Multipole Moments
 -----------------------------------------------------------------
    Charge (ESU x 10^10)
                 0.0000
    Dipole Moment (Debye)
         X       0.0215      Y      -0.0369      Z       0.0282
       Tot       0.0511
    Quadrupole Moments (Debye-Ang)
        XX     -12.5902     XY       0.8410     YY     -13.2582
        XZ       0.6095     YZ      -1.2170     ZZ     -14.6050

 Total job time:  4.38s(wall), 22.83s(cpu)
        *  Thank you very much for using Q-Chem.  Have a nice day.  *
