 Q-Chem 5.3 (devel), Q-Chem, Inc., Pleasanton, CA (2020)
 Q-Chem 5.3.0 for Intel X86 EM64T Linux

User input:
--------------------------------------------------------------
$rem
   JOBTYPE  sp
   EXCHANGE   omegaB97X-D
   BASIS   6-311+G(2df,2pd)
   UNRESTRICTED   False
   max_scf_cycles   250
   geom_opt_max_cycles   1500
   basis2 6-31G*
   scf_algorithm rca_diis
   SYM_IGNORE  TRUE
   print_input   true
   geom_opt_dmax   80
   pop_mulliken false
   XC_GRID 000075000302
$end

$molecule
0 1
C       -4.4654833521     0.4798299049     0.0366768825
C       -3.3209789353     1.1412270513     0.0362391884
H       -5.4160325041     0.8896721172     -0.5507751099
H       -4.5743577892     -0.3638235485     0.5142798334
H       -3.2015165800     2.1691922364     -0.5503911705
H       -2.5363408392     0.8145322388     0.5139703762
$end
--------------------------------------------------------------

             Standard Nuclear Orientation (Angstroms)
    I     Atom           X                Y                Z
 ----------------------------------------------------------------
    1      C      -4.4654833521     0.4798299049     0.0366768825
    2      C      -3.3209789353     1.1412270513     0.0362391884
    3      H      -5.4160325041     0.8896721172    -0.5507751099
    4      H      -4.5743577892    -0.3638235485     0.5142798334
    5      H      -3.2015165800     2.1691922364    -0.5503911705
    6      H      -2.5363408392     0.8145322388     0.5139703762
 ----------------------------------------------------------------

    7     -78.5229080549      4.84E-06 Convergence criterion met
    5     -78.5561423304      5.05E-06 Convergence criterion met
 Total energy in the final basis set = -78.55614233

                    Orbital Energies (a.u.)
 --------------------------------------------------------------

 Alpha MOs
 -- Occupied --
-10.2825 -10.2815  -0.8688  -0.6827  -0.5680  -0.5042  -0.4359  -0.3619

                    Cartesian Multipole Moments
 -----------------------------------------------------------------
    Charge (ESU x 10^10)
                 0.0000
    Dipole Moment (Debye)
         X       0.0541      Y      -0.0927      Z       0.0758
       Tot       0.1314
    Quadrupole Moments (Debye-Ang)
        XX     -12.9386     XY       0.9143     YY     -13.2519
        XZ       0.4976     YZ      -1.3110     ZZ     -14.5101

 Total job time:  4.37s(wall), 22.98s(cpu)
        *  Thank you very much for using Q-Chem.  Have a nice day.  *
