 Q-Chem 5.3 (devel), Q-Chem, Inc., Pleasanton, CA (2020)
 Q-Chem 5.3.0 for Intel X86 EM64T Linux

User input:
--------------------------------------------------------------
$rem
   JOBTYPE  sp
   EXCHANGE   omegaB97X-D
   BASIS   6-311+G(2df,2pd)
   UNRESTRICTED   False
   max_scf_cycles   250
   geom_opt_max_cycles   1500
   basis2 6-31G*
   scf_algorithm rca_diis
   SYM_IGNORE  TRUE
   print_input   true
   geom_opt_dmax   80
   pop_mulliken false
   XC_GRID 000075000302
$end

$molecule
0 1
C       -4.4724624182     0.4911524445     -0.0541854969
C       -3.3278816123     1.1524174977     -0.0544831846
H       -5.3639295504     0.9120731959     -0.5015945097
H       -4.6102005175     -0.3923474405     0.5560553368
H       -3.2446916252     2.1326755926     -0.5063253877
H       -2.4955442765     0.8346587099     0.5605332421
$end
--------------------------------------------------------------

             Standard Nuclear Orientation (Angstroms)
    I     Atom           X                Y                Z
 ----------------------------------------------------------------
    1      C      -4.4724624182     0.4911524445    -0.0541854969
    2      C      -3.3278816123     1.1524174977    -0.0544831846
    3      H      -5.3639295504     0.9120731959    -0.5015945097
    4      H      -4.6102005175    -0.3923474405     0.5560553368
    5      H      -3.2446916252     2.1326755926    -0.5063253877
    6      H      -2.4955442765     0.8346587099     0.5605332421
 ----------------------------------------------------------------

    7     -78.5522276218      1.76E-06 Convergence criterion met
    5     -78.5842788978      5.26E-06 Convergence criterion met
 Total energy in the final basis set = -78.58427890

                    Orbital Energies (a.u.)
 --------------------------------------------------------------

 Alpha MOs
 -- Occupied --
-10.2830 -10.2820  -0.8657  -0.6746  -0.5615  -0.5091  -0.4381  -0.3612

                    Cartesian Multipole Moments
 -----------------------------------------------------------------
    Charge (ESU x 10^10)
                -0.0000
    Dipole Moment (Debye)
         X      -0.0848      Y       0.1471      Z       0.2402
       Tot       0.2941
    Quadrupole Moments (Debye-Ang)
        XX     -11.8929     XY      -0.1476     YY     -12.8788
        XZ      -0.1613     YZ      -1.1462     ZZ     -14.5257

 Total job time:  4.32s(wall), 22.75s(cpu)
        *  Thank you very much for using Q-Chem.  Have a nice day.  *
