 Q-Chem 5.3 (devel), Q-Chem, Inc., Pleasanton, CA (2020)
 Q-Chem 5.3.0 for Intel X86 EM64T Linux

User input:
--------------------------------------------------------------
$rem
   JOBTYPE  sp
   EXCHANGE   omegaB97X-D
   BASIS   6-311+G(2df,2pd)
   UNRESTRICTED   False
   max_scf_cycles   250
   geom_opt_max_cycles   1500
   basis2 6-31G*
   scf_algorithm rca_diis
   SYM_IGNORE  TRUE
   print_input   true
   geom_opt_dmax   80
   pop_mulliken false
   XC_GRID 000075000302
$end

$molecule
0 1
C       -4.4200325969     0.4006760495     0.0993784158
C       -3.2760556006     1.0629843192     0.1004864437
H       -4.9405703227     1.1269981324     -0.5193673602
H       -4.9861391241     -0.4593151655     0.4199301371
H       -3.6405215092     1.8696222725     -0.5301057596
H       -2.2513908465     1.1296643920     0.4296781233
$end
--------------------------------------------------------------

             Standard Nuclear Orientation (Angstroms)
    I     Atom           X                Y                Z
 ----------------------------------------------------------------
    1      C      -4.4200325969     0.4006760495     0.0993784158
    2      C      -3.2760556006     1.0629843192     0.1004864437
    3      H      -4.9405703227     1.1269981324    -0.5193673602
    4      H      -4.9861391241    -0.4593151655     0.4199301371
    5      H      -3.6405215092     1.8696222725    -0.5301057596
    6      H      -2.2513908465     1.1296643920     0.4296781233
 ----------------------------------------------------------------

    7     -78.4926050615      1.58E-06 Convergence criterion met
    5     -78.5271416315      7.05E-06 Convergence criterion met
 Total energy in the final basis set = -78.52714163

                    Orbital Energies (a.u.)
 --------------------------------------------------------------

 Alpha MOs
 -- Occupied --
-10.2894 -10.2884  -0.8886  -0.6710  -0.5820  -0.5093  -0.3959  -0.3671

                    Cartesian Multipole Moments
 -----------------------------------------------------------------
    Charge (ESU x 10^10)
                -0.0000
    Dipole Moment (Debye)
         X      -0.0432      Y       0.0744      Z      -0.0580
       Tot       0.1038
    Quadrupole Moments (Debye-Ang)
        XX     -12.0145     XY       0.5598     YY     -13.2316
        XZ       0.8298     YZ      -1.0777     ZZ     -14.7215

 Total job time:  4.38s(wall), 22.98s(cpu)
        *  Thank you very much for using Q-Chem.  Have a nice day.  *
