 Q-Chem 5.3 (devel), Q-Chem, Inc., Pleasanton, CA (2020)
 Q-Chem 5.3.0 for Intel X86 EM64T Linux

User input:
--------------------------------------------------------------
$rem
   JOBTYPE  sp
   EXCHANGE   omegaB97X-D
   BASIS   6-311+G(2df,2pd)
   UNRESTRICTED   False
   max_scf_cycles   250
   geom_opt_max_cycles   1500
   basis2 6-31G*
   scf_algorithm rca_diis
   SYM_IGNORE  TRUE
   print_input   true
   geom_opt_dmax   80
   pop_mulliken false
   XC_GRID 000075000302
$end

$molecule
0 1
C       -4.6478871084     0.4347822774     0.0011464800
C       -3.5033227041     1.0960749210     0.0005126973
H       -5.3099361463     1.0322727485     -0.6013051676
H       -4.4595313304     -0.4390427132     0.6003625757
H       -3.0918743426     2.0138325965     -0.4170168016
H       -2.5021583682     0.9927101699     0.4163002162
$end
--------------------------------------------------------------

             Standard Nuclear Orientation (Angstroms)
    I     Atom           X                Y                Z
 ----------------------------------------------------------------
    1      C      -4.6478871084     0.4347822774     0.0011464800
    2      C      -3.5033227041     1.0960749210     0.0005126973
    3      H      -5.3099361463     1.0322727485    -0.6013051676
    4      H      -4.4595313304    -0.4390427132     0.6003625757
    5      H      -3.0918743426     2.0138325965    -0.4170168016
    6      H      -2.5021583682     0.9927101699     0.4163002162
 ----------------------------------------------------------------

    7     -78.4973921463      3.65E-06 Convergence criterion met
    6     -78.5316662144      5.45E-06 Convergence criterion met
 Total energy in the final basis set = -78.53166621

                    Orbital Energies (a.u.)
 --------------------------------------------------------------

 Alpha MOs
 -- Occupied --
-10.2895 -10.2814  -0.8747  -0.6945  -0.5774  -0.4971  -0.4015  -0.3646

                    Cartesian Multipole Moments
 -----------------------------------------------------------------
    Charge (ESU x 10^10)
                -0.0000
    Dipole Moment (Debye)
         X       0.3266      Y       0.1852      Z      -0.0041
       Tot       0.3755
    Quadrupole Moments (Debye-Ang)
        XX     -15.2852     XY       0.0865     YY     -13.0202
        XZ       0.7324     YZ      -1.2415     ZZ     -14.6574

 Total job time:  4.88s(wall), 26.06s(cpu)
        *  Thank you very much for using Q-Chem.  Have a nice day.  *
