 Q-Chem 5.3 (devel), Q-Chem, Inc., Pleasanton, CA (2020)
 Q-Chem 5.3.0 for Intel X86 EM64T Linux

User input:
--------------------------------------------------------------
$rem
   JOBTYPE  sp
   EXCHANGE   omegaB97X-D
   BASIS   6-311+G(2df,2pd)
   UNRESTRICTED   False
   max_scf_cycles   250
   geom_opt_max_cycles   1500
   basis2 6-31G*
   scf_algorithm rca_diis
   SYM_IGNORE  TRUE
   print_input   true
   geom_opt_dmax   80
   pop_mulliken false
   XC_GRID 000075000302
$end

$molecule
0 1
C       -4.5061124154     0.5499776774     -0.0205305922
C       -3.3616293773     1.2114119072     -0.0209053440
H       -5.4223637795     0.8339861763     -0.5205260712
H       -4.5238559852     -0.3762562249     0.5412279001
H       -3.1509745592     2.1485491571     -0.5184278481
H       -2.5497738834     0.7629613070     0.5391619554
$end
--------------------------------------------------------------

             Standard Nuclear Orientation (Angstroms)
    I     Atom           X                Y                Z
 ----------------------------------------------------------------
    1      C      -4.5061124154     0.5499776774    -0.0205305922
    2      C      -3.3616293773     1.2114119072    -0.0209053440
    3      H      -5.4223637795     0.8339861763    -0.5205260712
    4      H      -4.5238559852    -0.3762562249     0.5412279001
    5      H      -3.1509745592     2.1485491571    -0.5184278481
    6      H      -2.5497738834     0.7629613070     0.5391619554
 ----------------------------------------------------------------

    7     -78.5525510686      8.84E-07 Convergence criterion met
    5     -78.5846209678      4.93E-06 Convergence criterion met
 Total energy in the final basis set = -78.58462097

                    Orbital Energies (a.u.)
 --------------------------------------------------------------

 Alpha MOs
 -- Occupied --
-10.2832 -10.2822  -0.8658  -0.6747  -0.5625  -0.5088  -0.4375  -0.3613

                    Cartesian Multipole Moments
 -----------------------------------------------------------------
    Charge (ESU x 10^10)
                 0.0000
    Dipole Moment (Debye)
         X       0.0064      Y      -0.0110      Z       0.0083
       Tot       0.0152
    Quadrupole Moments (Debye-Ang)
        XX     -12.5335     XY       0.5987     YY     -13.1325
        XZ       0.7503     YZ      -1.3474     ZZ     -14.5396

 Total job time:  4.38s(wall), 23.08s(cpu)
        *  Thank you very much for using Q-Chem.  Have a nice day.  *
