 Q-Chem 5.3 (devel), Q-Chem, Inc., Pleasanton, CA (2020)
 Q-Chem 5.3.0 for Intel X86 EM64T Linux

User input:
--------------------------------------------------------------
$rem
   JOBTYPE  sp
   EXCHANGE   omegaB97X-D
   BASIS   6-311+G(2df,2pd)
   UNRESTRICTED   False
   max_scf_cycles   250
   geom_opt_max_cycles   1500
   basis2 6-31G*
   scf_algorithm rca_diis
   SYM_IGNORE  TRUE
   print_input   true
   geom_opt_dmax   80
   pop_mulliken false
   XC_GRID 000075000302
$end

$molecule
0 1
C       -4.5140193609     0.5110086023     -0.0000503132
C       -3.3242214690     1.1992077944     0.0000610731
H       -5.4430731529     0.7848033308     -0.4959745507
H       -4.7411075839     -0.4304080737     0.4961251757
H       -3.0971241482     2.1406098794     -0.4961378957
H       -2.3951642852     0.9254084669     0.4959765109
$end
--------------------------------------------------------------

             Standard Nuclear Orientation (Angstroms)
    I     Atom           X                Y                Z
 ----------------------------------------------------------------
    1      C      -4.5140193609     0.5110086023    -0.0000503132
    2      C      -3.3242214690     1.1992077944     0.0000610731
    3      H      -5.4430731529     0.7848033308    -0.4959745507
    4      H      -4.7411075839    -0.4304080737     0.4961251757
    5      H      -3.0971241482     2.1406098794    -0.4961378957
    6      H      -2.3951642852     0.9254084669     0.4959765109
 ----------------------------------------------------------------

    7     -78.5430460241      5.81E-07 Convergence criterion met
    5     -78.5742099102      5.81E-06 Convergence criterion met
 Total energy in the final basis set = -78.57420991

                    Orbital Energies (a.u.)
 --------------------------------------------------------------

 Alpha MOs
 -- Occupied --
-10.2977 -10.2971  -0.8511  -0.6939  -0.5347  -0.5304  -0.4296  -0.3538

                    Cartesian Multipole Moments
 -----------------------------------------------------------------
    Charge (ESU x 10^10)
                 0.0000
    Dipole Moment (Debye)
         X       0.0000      Y      -0.0000      Z      -0.0000
       Tot       0.0000
    Quadrupole Moments (Debye-Ang)
        XX     -11.7928     XY       1.3017     YY     -13.2908
        XZ       0.6422     YZ      -1.1139     ZZ     -14.9534

 Total job time:  4.26s(wall), 22.52s(cpu)
        *  Thank you very much for using Q-Chem.  Have a nice day.  *
