 Q-Chem 5.3 (devel), Q-Chem, Inc., Pleasanton, CA (2020)
 Q-Chem 5.3.0 for Intel X86 EM64T Linux

User input:
--------------------------------------------------------------
$rem
   JOBTYPE  sp
   EXCHANGE   omegaB97X-D
   BASIS   6-311+G(2df,2pd)
   UNRESTRICTED   False
   max_scf_cycles   250
   geom_opt_max_cycles   1500
   basis2 6-31G*
   scf_algorithm rca_diis
   SYM_IGNORE  TRUE
   print_input   true
   geom_opt_dmax   80
   pop_mulliken false
   XC_GRID 000075000302
$end

$molecule
0 1
C       -4.3868544236     0.4018599996     0.1124080555
C       -3.4513821114     1.3083498010     -0.1124083158
H       -5.1301161414     0.9326691306     -0.4759820804
H       -4.6987315076     -0.5246356378     0.5686419125
H       -3.1395049728     2.2348449094     -0.5686431017
H       -2.7081208432     0.7775417972     0.4759835300
$end
--------------------------------------------------------------

             Standard Nuclear Orientation (Angstroms)
    I     Atom           X                Y                Z
 ----------------------------------------------------------------
    1      C      -4.3868544236     0.4018599996     0.1124080555
    2      C      -3.4513821114     1.3083498010    -0.1124083158
    3      H      -5.1301161414     0.9326691306    -0.4759820804
    4      H      -4.6987315076    -0.5246356378     0.5686419125
    5      H      -3.1395049728     2.2348449094    -0.5686431017
    6      H      -2.7081208432     0.7775417972     0.4759835300
 ----------------------------------------------------------------

    7     -78.4788038889      1.05E-06 Convergence criterion met
    5     -78.5128189519      5.48E-06 Convergence criterion met
 Total energy in the final basis set = -78.51281895

                    Orbital Energies (a.u.)
 --------------------------------------------------------------

 Alpha MOs
 -- Occupied --
-10.2880 -10.2870  -0.8821  -0.6758  -0.5668  -0.5503  -0.3672  -0.3613

                    Cartesian Multipole Moments
 -----------------------------------------------------------------
    Charge (ESU x 10^10)
                -0.0000
    Dipole Moment (Debye)
         X      -0.0000      Y       0.0000      Z       0.0000
       Tot       0.0000
    Quadrupole Moments (Debye-Ang)
        XX     -14.2370     XY       1.1927     YY     -11.7716
        XZ      -0.2374     YZ      -1.9360     ZZ     -14.5234

 Total job time:  4.60s(wall), 24.28s(cpu)
        *  Thank you very much for using Q-Chem.  Have a nice day.  *
