 Q-Chem 5.3 (devel), Q-Chem, Inc., Pleasanton, CA (2020)
 Q-Chem 5.3.0 for Intel X86 EM64T Linux

User input:
--------------------------------------------------------------
$rem
   JOBTYPE  sp
   EXCHANGE   omegaB97X-D
   BASIS   6-311+G(2df,2pd)
   UNRESTRICTED   False
   max_scf_cycles   250
   geom_opt_max_cycles   1500
   basis2 6-31G*
   scf_algorithm rca_diis
   SYM_IGNORE  TRUE
   print_input   true
   geom_opt_dmax   80
   pop_mulliken false
   XC_GRID 000075000302
$end

$molecule
0 1
C       -4.4687451986     0.5378454186     0.0005641201
C       -3.3694827565     1.1723502046     -0.0005878665
H       -5.2659434591     0.9942584403     -0.5617898101
H       -4.4709513235     -0.3815469658     0.5615236481
H       -3.3672898741     2.0917642996     -0.5615118978
H       -2.5722973883     0.7159586028     0.5618018063
$end
--------------------------------------------------------------

             Standard Nuclear Orientation (Angstroms)
    I     Atom           X                Y                Z
 ----------------------------------------------------------------
    1      C      -4.4687451986     0.5378454186     0.0005641201
    2      C      -3.3694827565     1.1723502046    -0.0005878665
    3      H      -5.2659434591     0.9942584403    -0.5617898101
    4      H      -4.4709513235    -0.3815469658     0.5615236481
    5      H      -3.3672898741     2.0917642996    -0.5615118978
    6      H      -2.5722973883     0.7159586028     0.5618018063
 ----------------------------------------------------------------

    7     -78.5393825232      7.95E-07 Convergence criterion met
    5     -78.5734079840      4.34E-06 Convergence criterion met
 Total energy in the final basis set = -78.57340798

                    Orbital Energies (a.u.)
 --------------------------------------------------------------

 Alpha MOs
 -- Occupied --
-10.2688 -10.2673  -0.8833  -0.6552  -0.5899  -0.4879  -0.4417  -0.3705

                    Cartesian Multipole Moments
 -----------------------------------------------------------------
    Charge (ESU x 10^10)
                 0.0000
    Dipole Moment (Debye)
         X      -0.0000      Y       0.0000      Z       0.0001
       Tot       0.0001
    Quadrupole Moments (Debye-Ang)
        XX     -13.1698     XY      -0.1645     YY     -12.9762
        XZ       0.9003     YZ      -1.5553     ZZ     -14.1541

 Total job time:  4.57s(wall), 24.17s(cpu)
        *  Thank you very much for using Q-Chem.  Have a nice day.  *
