 Q-Chem 5.3 (devel), Q-Chem, Inc., Pleasanton, CA (2020)
 Q-Chem 5.3.0 for Intel X86 EM64T Linux

User input:
--------------------------------------------------------------
$rem
   JOBTYPE  sp
   EXCHANGE   omegaB97X-D
   BASIS   6-311+G(2df,2pd)
   UNRESTRICTED   False
   max_scf_cycles   250
   geom_opt_max_cycles   1500
   basis2 6-31G*
   scf_algorithm rca_diis
   SYM_IGNORE  TRUE
   print_input   true
   geom_opt_dmax   80
   pop_mulliken false
   XC_GRID 000075000302
$end

$molecule
0 1
C       -4.4114858319     0.4235479164     0.0904129284
C       -3.4267507893     1.2866620040     -0.0904129995
H       -5.1820885607     0.9232183526     -0.4885726643
H       -4.6849259965     -0.5076839683     0.5631460326
H       -3.1533104958     2.2178933265     -0.5631470540
H       -2.6561483259     0.7869923690     0.4885737569
$end
--------------------------------------------------------------

             Standard Nuclear Orientation (Angstroms)
    I     Atom           X                Y                Z
 ----------------------------------------------------------------
    1      C      -4.4114858319     0.4235479164     0.0904129284
    2      C      -3.4267507893     1.2866620040    -0.0904129995
    3      H      -5.1820885607     0.9232183526    -0.4885726643
    4      H      -4.6849259965    -0.5076839683     0.5631460326
    5      H      -3.1533104958     2.2178933265    -0.5631470540
    6      H      -2.6561483259     0.7869923690     0.4885737569
 ----------------------------------------------------------------

    7     -78.5066376064      9.43E-07 Convergence criterion met
    5     -78.5399054519      5.16E-06 Convergence criterion met
 Total energy in the final basis set = -78.53990545

                    Orbital Energies (a.u.)
 --------------------------------------------------------------

 Alpha MOs
 -- Occupied --
-10.2861 -10.2852  -0.8754  -0.6755  -0.5644  -0.5402  -0.3845  -0.3648

                    Cartesian Multipole Moments
 -----------------------------------------------------------------
    Charge (ESU x 10^10)
                -0.0000
    Dipole Moment (Debye)
         X      -0.0000      Y       0.0000      Z      -0.0000
       Tot       0.0000
    Quadrupole Moments (Debye-Ang)
        XX     -13.8570     XY       1.1052     YY     -11.9915
        XZ      -0.0463     YZ      -1.8382     ZZ     -14.5254

 Total job time:  4.46s(wall), 23.16s(cpu)
        *  Thank you very much for using Q-Chem.  Have a nice day.  *
