 Q-Chem 5.3 (devel), Q-Chem, Inc., Pleasanton, CA (2020)
 Q-Chem 5.3.0 for Intel X86 EM64T Linux

User input:
--------------------------------------------------------------
$rem
   JOBTYPE  sp
   EXCHANGE   omegaB97X-D
   BASIS   6-311+G(2df,2pd)
   UNRESTRICTED   False
   max_scf_cycles   250
   geom_opt_max_cycles   1500
   basis2 6-31G*
   scf_algorithm rca_diis
   SYM_IGNORE  TRUE
   print_input   true
   geom_opt_dmax   80
   pop_mulliken false
   XC_GRID 000075000302
$end

$molecule
0 1
C       -4.5302036331     0.5912750270     -0.0544594575
C       -3.3856982650     1.2526706672     -0.0548976684
H       -5.2729304404     0.8977930361     -0.5050017592
H       -4.6515594565     -0.4827082917     0.5596434878
H       -3.2802173099     2.0501813233     -0.5054809924
H       -2.3941008951     0.8214182382     0.5601963896
$end
--------------------------------------------------------------

             Standard Nuclear Orientation (Angstroms)
    I     Atom           X                Y                Z
 ----------------------------------------------------------------
    1      C      -4.5302036331     0.5912750270    -0.0544594575
    2      C      -3.3856982650     1.2526706672    -0.0548976684
    3      H      -5.2729304404     0.8977930361    -0.5050017592
    4      H      -4.6515594565    -0.4827082917     0.5596434878
    5      H      -3.2802173099     2.0501813233    -0.5054809924
    6      H      -2.3941008951     0.8214182382     0.5601963896
 ----------------------------------------------------------------

    7     -78.4806988407      7.31E-06 Convergence criterion met
    5     -78.5156263925      5.25E-06 Convergence criterion met
 Total energy in the final basis set = -78.51562639

                    Orbital Energies (a.u.)
 --------------------------------------------------------------

 Alpha MOs
 -- Occupied --
-10.2821 -10.2811  -0.8734  -0.6922  -0.5748  -0.4993  -0.4325  -0.3630

                    Cartesian Multipole Moments
 -----------------------------------------------------------------
    Charge (ESU x 10^10)
                 0.0000
    Dipole Moment (Debye)
         X      -0.0785      Y       0.1344      Z      -0.1099
       Tot       0.1905
    Quadrupole Moments (Debye-Ang)
        XX     -11.9266     XY      -0.1234     YY     -12.8503
        XZ       1.2301     YZ      -1.4782     ZZ     -14.4839

 Total job time:  4.39s(wall), 23.13s(cpu)
        *  Thank you very much for using Q-Chem.  Have a nice day.  *
