 Q-Chem 5.3 (devel), Q-Chem, Inc., Pleasanton, CA (2020)
 Q-Chem 5.3.0 for Intel X86 EM64T Linux

User input:
--------------------------------------------------------------
$rem
   JOBTYPE  sp
   EXCHANGE   omegaB97X-D
   BASIS   6-311+G(2df,2pd)
   UNRESTRICTED   False
   max_scf_cycles   250
   geom_opt_max_cycles   1500
   basis2 6-31G*
   scf_algorithm rca_diis
   SYM_IGNORE  TRUE
   print_input   true
   geom_opt_dmax   80
   pop_mulliken false
   XC_GRID 000075000302
$end

$molecule
0 1
C       -4.5130368369     0.5119498955     0.0002759568
C       -3.3251954468     1.1982523147     -0.0002885905
H       -5.3553493783     0.9213612105     -0.5486664242
H       -4.5788642258     -0.4226057399     0.5486011466
H       -3.2593718749     2.1328147472     -0.5486026676
H       -2.4828922374     0.7888575721     0.5486805789
$end
--------------------------------------------------------------

             Standard Nuclear Orientation (Angstroms)
    I     Atom           X                Y                Z
 ----------------------------------------------------------------
    1      C      -4.5130368369     0.5119498955     0.0002759568
    2      C      -3.3251954468     1.1982523147    -0.0002885905
    3      H      -5.3553493783     0.9213612105    -0.5486664242
    4      H      -4.5788642258    -0.4226057399     0.5486011466
    5      H      -3.2593718749     2.1328147472    -0.5486026676
    6      H      -2.4828922374     0.7888575721     0.5486805789
 ----------------------------------------------------------------

    7     -78.5513908865      6.71E-07 Convergence criterion met
    5     -78.5829273151      4.53E-06 Convergence criterion met
 Total energy in the final basis set = -78.58292732

                    Orbital Energies (a.u.)
 --------------------------------------------------------------

 Alpha MOs
 -- Occupied --
-10.2906 -10.2899  -0.8559  -0.6732  -0.5648  -0.4924  -0.4506  -0.3529

                    Cartesian Multipole Moments
 -----------------------------------------------------------------
    Charge (ESU x 10^10)
                -0.0000
    Dipole Moment (Debye)
         X      -0.0000      Y       0.0000      Z       0.0000
       Tot       0.0000
    Quadrupole Moments (Debye-Ang)
        XX     -12.7077     XY       0.3577     YY     -13.1170
        XZ       0.9086     YZ      -1.5725     ZZ     -14.6097

 Total job time:  4.31s(wall), 22.75s(cpu)
        *  Thank you very much for using Q-Chem.  Have a nice day.  *
