 Q-Chem 5.3 (devel), Q-Chem, Inc., Pleasanton, CA (2020)
 Q-Chem 5.3.0 for Intel X86 EM64T Linux

User input:
--------------------------------------------------------------
$rem
   JOBTYPE  sp
   EXCHANGE   omegaB97X-D
   BASIS   6-311+G(2df,2pd)
   UNRESTRICTED   False
   max_scf_cycles   250
   geom_opt_max_cycles   1500
   basis2 6-31G*
   scf_algorithm rca_diis
   SYM_IGNORE  TRUE
   print_input   true
   geom_opt_dmax   80
   pop_mulliken false
   XC_GRID 000075000302
$end

$molecule
0 1
C       -4.5563848561     0.4870638053     0.0004303639
C       -3.2818473838     1.2231381631     -0.0004433272
H       -5.3412987396     0.9774925517     -0.5781158638
H       -4.5231671392     -0.4384878700     0.5779611059
H       -3.3150689663     2.1486969507     -0.5779624926
H       -2.4969429150     0.7327263993     0.5781302137
$end
--------------------------------------------------------------

             Standard Nuclear Orientation (Angstroms)
    I     Atom           X                Y                Z
 ----------------------------------------------------------------
    1      C      -4.5563848561     0.4870638053     0.0004303639
    2      C      -3.2818473838     1.2231381631    -0.0004433272
    3      H      -5.3412987396     0.9774925517    -0.5781158638
    4      H      -4.5231671392    -0.4384878700     0.5779611059
    5      H      -3.3150689663     2.1486969507    -0.5779624926
    6      H      -2.4969429150     0.7327263993     0.5781302137
 ----------------------------------------------------------------

    7     -78.5263248510      6.80E-07 Convergence criterion met
    5     -78.5581669886      4.15E-06 Convergence criterion met
 Total energy in the final basis set = -78.55816699

                    Orbital Energies (a.u.)
 --------------------------------------------------------------

 Alpha MOs
 -- Occupied --
-10.3045 -10.3041  -0.8397  -0.6712  -0.5715  -0.4703  -0.4592  -0.3386

                    Cartesian Multipole Moments
 -----------------------------------------------------------------
    Charge (ESU x 10^10)
                -0.0000
    Dipole Moment (Debye)
         X      -0.0000      Y       0.0000      Z       0.0000
       Tot       0.0000
    Quadrupole Moments (Debye-Ang)
        XX     -13.1675     XY      -0.0041     YY     -13.1593
        XZ       1.1344     YZ      -1.9619     ZZ     -14.7617

 Total job time:  4.35s(wall), 22.81s(cpu)
        *  Thank you very much for using Q-Chem.  Have a nice day.  *
