 Q-Chem 5.3 (devel), Q-Chem, Inc., Pleasanton, CA (2020)
 Q-Chem 5.3.0 for Intel X86 EM64T Linux

User input:
--------------------------------------------------------------
$rem
   JOBTYPE  sp
   EXCHANGE   omegaB97X-D
   BASIS   6-311+G(2df,2pd)
   UNRESTRICTED   False
   max_scf_cycles   250
   geom_opt_max_cycles   1500
   basis2 6-31G*
   scf_algorithm rca_diis
   SYM_IGNORE  TRUE
   print_input   true
   geom_opt_dmax   80
   pop_mulliken false
   XC_GRID 000075000302
$end

$molecule
0 1
C       -4.4866396632     0.5271998984     0.0001938186
C       -3.3515979518     1.1830121781     -0.0001907524
H       -5.3986011942     0.9094081693     -0.5566402879
H       -4.6109851302     -0.4544319417     0.5567403855
H       -3.2272509059     2.1646403853     -0.5567415040
H       -2.4396351547     0.8008013106     0.5566383402
$end
--------------------------------------------------------------

             Standard Nuclear Orientation (Angstroms)
    I     Atom           X                Y                Z
 ----------------------------------------------------------------
    1      C      -4.4866396632     0.5271998984     0.0001938186
    2      C      -3.3515979518     1.1830121781    -0.0001907524
    3      H      -5.3986011942     0.9094081693    -0.5566402879
    4      H      -4.6109851302    -0.4544319417     0.5567403855
    5      H      -3.2272509059     2.1646403853    -0.5567415040
    6      H      -2.4396351547     0.8008013106     0.5566383402
 ----------------------------------------------------------------

    7     -78.5487739613      8.39E-07 Convergence criterion met
    5     -78.5800542036      5.03E-06 Convergence criterion met
 Total energy in the final basis set = -78.58005420

                    Orbital Energies (a.u.)
 --------------------------------------------------------------

 Alpha MOs
 -- Occupied --
-10.2929 -10.2919  -0.8627  -0.6592  -0.5511  -0.5062  -0.4268  -0.3640

                    Cartesian Multipole Moments
 -----------------------------------------------------------------
    Charge (ESU x 10^10)
                 0.0000
    Dipole Moment (Debye)
         X       0.0000      Y      -0.0000      Z      -0.0000
       Tot       0.0000
    Quadrupole Moments (Debye-Ang)
        XX     -12.6147     XY       0.5023     YY     -13.1912
        XZ       0.8357     YZ      -1.4464     ZZ     -14.6641

 Total job time:  4.36s(wall), 22.87s(cpu)
        *  Thank you very much for using Q-Chem.  Have a nice day.  *
