 Q-Chem 5.3 (devel), Q-Chem, Inc., Pleasanton, CA (2020)
 Q-Chem 5.3.0 for Intel X86 EM64T Linux

User input:
--------------------------------------------------------------
$rem
   JOBTYPE  sp
   EXCHANGE   omegaB97X-D
   BASIS   6-311+G(2df,2pd)
   UNRESTRICTED   False
   max_scf_cycles   250
   geom_opt_max_cycles   1500
   basis2 6-31G*
   scf_algorithm rca_diis
   SYM_IGNORE  TRUE
   print_input   true
   geom_opt_dmax   80
   pop_mulliken false
   XC_GRID 000075000302
$end

$molecule
0 1
C       -4.4047292833     0.5742736666     0.0000424294
C       -3.4335073939     1.1359365283     -0.0000421685
H       -5.3536719682     0.7703927724     -0.4555855353
H       -4.7088845282     -0.3457043384     0.4556384430
H       -3.1293532012     2.0559160110     -0.4556358224
H       -2.4845636251     0.9398153602     0.4555826539
$end
--------------------------------------------------------------

             Standard Nuclear Orientation (Angstroms)
    I     Atom           X                Y                Z
 ----------------------------------------------------------------
    1      C      -4.4047292833     0.5742736666     0.0000424294
    2      C      -3.4335073939     1.1359365283    -0.0000421685
    3      H      -5.3536719682     0.7703927724    -0.4555855353
    4      H      -4.7088845282    -0.3457043384     0.4556384430
    5      H      -3.1293532012     2.0559160110    -0.4556358224
    6      H      -2.4845636251     0.9398153602     0.4555826539
 ----------------------------------------------------------------

    7     -78.4604930653      1.73E-06 Convergence criterion met
    5     -78.5011737844      6.72E-06 Convergence criterion met
 Total energy in the final basis set = -78.50117378

                    Orbital Energies (a.u.)
 --------------------------------------------------------------

 Alpha MOs
 -- Occupied --
-10.2505 -10.2456  -0.9043  -0.6867  -0.5750  -0.5510  -0.4023  -0.3793

                    Cartesian Multipole Moments
 -----------------------------------------------------------------
    Charge (ESU x 10^10)
                 0.0000
    Dipole Moment (Debye)
         X       0.0000      Y      -0.0000      Z      -0.0000
       Tot       0.0000
    Quadrupole Moments (Debye-Ang)
        XX     -11.7334     XY       1.1864     YY     -13.0988
        XZ       0.2943     YZ      -0.5109     ZZ     -14.2023

 Total job time:  4.32s(wall), 22.82s(cpu)
        *  Thank you very much for using Q-Chem.  Have a nice day.  *
