 Q-Chem 5.3 (devel), Q-Chem, Inc., Pleasanton, CA (2020)
 Q-Chem 5.3.0 for Intel X86 EM64T Linux

User input:
--------------------------------------------------------------
$rem
   JOBTYPE  sp
   EXCHANGE   omegaB97X-D
   BASIS   6-311+G(2df,2pd)
   UNRESTRICTED   False
   max_scf_cycles   250
   geom_opt_max_cycles   1500
   basis2 6-31G*
   scf_algorithm rca_diis
   SYM_IGNORE  TRUE
   print_input   true
   geom_opt_dmax   80
   pop_mulliken false
   XC_GRID 000075000302
$end

$molecule
0 1
C       -4.4961003950     0.5216110083     0.0002444204
C       -3.3421357484     1.1885973973     -0.0002465824
H       -5.3202012033     0.8746415458     -0.5076172071
H       -4.6016594806     -0.3684871513     0.5074449828
H       -3.2365776853     2.0786983995     -0.5074442355
H       -2.5180354874     0.8355688004     0.5076186218
$end
--------------------------------------------------------------

             Standard Nuclear Orientation (Angstroms)
    I     Atom           X                Y                Z
 ----------------------------------------------------------------
    1      C      -4.4961003950     0.5216110083     0.0002444204
    2      C      -3.3421357484     1.1885973973    -0.0002465824
    3      H      -5.3202012033     0.8746415458    -0.5076172071
    4      H      -4.6016594806    -0.3684871513     0.5074449828
    5      H      -3.2365776853     2.0786983995    -0.5074442355
    6      H      -2.5180354874     0.8355688004     0.5076186218
 ----------------------------------------------------------------

    7     -78.5452348434      5.76E-07 Convergence criterion met
    5     -78.5785700177      4.80E-06 Convergence criterion met
 Total energy in the final basis set = -78.57857002

                    Orbital Energies (a.u.)
 --------------------------------------------------------------

 Alpha MOs
 -- Occupied --
-10.2723 -10.2714  -0.8685  -0.6912  -0.5727  -0.5118  -0.4520  -0.3583

                    Cartesian Multipole Moments
 -----------------------------------------------------------------
    Charge (ESU x 10^10)
                 0.0000
    Dipole Moment (Debye)
         X       0.0000      Y       0.0000      Z       0.0000
       Tot       0.0000
    Quadrupole Moments (Debye-Ang)
        XX     -12.3571     XY       0.5641     YY     -13.0044
        XZ       0.7473     YZ      -1.2938     ZZ     -14.3884

 Total job time:  4.33s(wall), 22.87s(cpu)
        *  Thank you very much for using Q-Chem.  Have a nice day.  *
