 Q-Chem 5.3 (devel), Q-Chem, Inc., Pleasanton, CA (2020)
 Q-Chem 5.3.0 for Intel X86 EM64T Linux

User input:
--------------------------------------------------------------
$rem
   JOBTYPE  sp
   EXCHANGE   omegaB97X-D
   BASIS   6-311+G(2df,2pd)
   UNRESTRICTED   False
   max_scf_cycles   250
   geom_opt_max_cycles   1500
   basis2 6-31G*
   scf_algorithm rca_diis
   SYM_IGNORE  TRUE
   print_input   true
   geom_opt_dmax   80
   pop_mulliken false
   XC_GRID 000075000302
$end

$molecule
0 1
C       -4.5347052185     0.4994971016     0.0003378274
C       -3.3035194198     1.2106918120     -0.0003721717
H       -5.3493273314     0.9498280053     -0.5639936133
H       -4.5511748094     -0.4316096315     0.5638977192
H       -3.2870708513     2.1418352216     -0.5638721185
H       -2.4889123697     0.7603874911     0.5640023569
$end
--------------------------------------------------------------

             Standard Nuclear Orientation (Angstroms)
    I     Atom           X                Y                Z
 ----------------------------------------------------------------
    1      C      -4.5347052185     0.4994971016     0.0003378274
    2      C      -3.3035194198     1.2106918120    -0.0003721717
    3      H      -5.3493273314     0.9498280053    -0.5639936133
    4      H      -4.5511748094    -0.4316096315     0.5638977192
    5      H      -3.2870708513     2.1418352216    -0.5638721185
    6      H      -2.4889123697     0.7603874911     0.5640023569
 ----------------------------------------------------------------

    7     -78.5415339724      6.81E-07 Convergence criterion met
    5     -78.5730416040      4.27E-06 Convergence criterion met
 Total energy in the final basis set = -78.57304160

                    Orbital Energies (a.u.)
 --------------------------------------------------------------

 Alpha MOs
 -- Occupied --
-10.2978 -10.2973  -0.8474  -0.6721  -0.5682  -0.4758  -0.4610  -0.3454

                    Cartesian Multipole Moments
 -----------------------------------------------------------------
    Charge (ESU x 10^10)
                 0.0000
    Dipole Moment (Debye)
         X      -0.0000      Y       0.0000      Z       0.0001
       Tot       0.0001
    Quadrupole Moments (Debye-Ang)
        XX     -12.9324     XY       0.1787     YY     -13.1353
        XZ       1.0232     YZ      -1.7703     ZZ     -14.6867

 Total job time:  4.29s(wall), 22.48s(cpu)
        *  Thank you very much for using Q-Chem.  Have a nice day.  *
