 Q-Chem 5.3 (devel), Q-Chem, Inc., Pleasanton, CA (2020)
 Q-Chem 5.3.0 for Intel X86 EM64T Linux

User input:
--------------------------------------------------------------
$rem
   JOBTYPE  sp
   EXCHANGE   omegaB97X-D
   BASIS   6-311+G(2df,2pd)
   UNRESTRICTED   False
   max_scf_cycles   250
   geom_opt_max_cycles   1500
   basis2 6-31G*
   scf_algorithm rca_diis
   SYM_IGNORE  TRUE
   print_input   true
   geom_opt_dmax   80
   pop_mulliken false
   XC_GRID 000075000302
$end

$molecule
0 1
C       -4.5302131061     0.6126036190     -0.0677116684
C       -3.3080237621     1.0976064897     0.0677119370
H       -5.4569105755     0.8757538036     -0.5565978116
H       -4.5232450583     -0.3115647636     0.5003832984
H       -3.3149926496     2.0217767835     -0.5003799664
H       -2.3813248483     0.8344540679     0.5565942110
$end
--------------------------------------------------------------

             Standard Nuclear Orientation (Angstroms)
    I     Atom           X                Y                Z
 ----------------------------------------------------------------
    1      C      -4.5302131061     0.6126036190    -0.0677116684
    2      C      -3.3080237621     1.0976064897     0.0677119370
    3      H      -5.4569105755     0.8757538036    -0.5565978116
    4      H      -4.5232450583    -0.3115647636     0.5003832984
    5      H      -3.3149926496     2.0217767835    -0.5003799664
    6      H      -2.3813248483     0.8344540679     0.5565942110
 ----------------------------------------------------------------

    7     -78.5279653282      8.23E-07 Convergence criterion met
    5     -78.5606707146      5.01E-06 Convergence criterion met
 Total energy in the final basis set = -78.56067071

                    Orbital Energies (a.u.)
 --------------------------------------------------------------

 Alpha MOs
 -- Occupied --
-10.2847 -10.2837  -0.8706  -0.6753  -0.5629  -0.5299  -0.4051  -0.3631

                    Cartesian Multipole Moments
 -----------------------------------------------------------------
    Charge (ESU x 10^10)
                -0.0000
    Dipole Moment (Debye)
         X       0.0000      Y      -0.0000      Z      -0.0000
       Tot       0.0000
    Quadrupole Moments (Debye-Ang)
        XX     -11.6959     XY      -0.0398     YY     -14.0344
        XZ       1.4199     YZ      -0.9973     ZZ     -14.5285

 Total job time:  4.31s(wall), 22.72s(cpu)
        *  Thank you very much for using Q-Chem.  Have a nice day.  *
