 Q-Chem 5.3 (devel), Q-Chem, Inc., Pleasanton, CA (2020)
 Q-Chem 5.3.0 for Intel X86 EM64T Linux

User input:
--------------------------------------------------------------
$rem
   JOBTYPE  sp
   EXCHANGE   omegaB97X-D
   BASIS   6-311+G(2df,2pd)
   UNRESTRICTED   False
   max_scf_cycles   250
   geom_opt_max_cycles   1500
   basis2 6-31G*
   scf_algorithm rca_diis
   SYM_IGNORE  TRUE
   print_input   true
   geom_opt_dmax   80
   pop_mulliken false
   XC_GRID 000075000302
$end

$molecule
0 1
C       -4.5488622482     0.6241272141     -0.0813117724
C       -3.4046952693     1.2861078838     -0.0807592620
H       -5.5596769446     0.6458971080     -0.4586499920
H       -4.2773426189     -0.2241513009     0.5399833093
H       -2.9216308217     2.1774181130     -0.4507001946
H       -2.8025020972     0.6212309820     0.5314379117
$end
--------------------------------------------------------------

             Standard Nuclear Orientation (Angstroms)
    I     Atom           X                Y                Z
 ----------------------------------------------------------------
    1      C      -4.5488622482     0.6241272141    -0.0813117724
    2      C      -3.4046952693     1.2861078838    -0.0807592620
    3      H      -5.5596769446     0.6458971080    -0.4586499920
    4      H      -4.2773426189    -0.2241513009     0.5399833093
    5      H      -2.9216308217     2.1774181130    -0.4507001946
    6      H      -2.8025020972     0.6212309820     0.5314379117
 ----------------------------------------------------------------

    7     -78.5179296748      1.40E-06 Convergence criterion met
    5     -78.5513391692      6.02E-06 Convergence criterion met
 Total energy in the final basis set = -78.55133917

                    Orbital Energies (a.u.)
 --------------------------------------------------------------

 Alpha MOs
 -- Occupied --
-10.2872 -10.2862  -0.8791  -0.6723  -0.5752  -0.5076  -0.4128  -0.3648

                    Cartesian Multipole Moments
 -----------------------------------------------------------------
    Charge (ESU x 10^10)
                -0.0000
    Dipole Moment (Debye)
         X       0.0312      Y      -0.0537      Z       0.0414
       Tot       0.0747
    Quadrupole Moments (Debye-Ang)
        XX     -12.6267     XY       1.0151     YY     -13.3583
        XZ       0.5047     YZ      -1.1101     ZZ     -14.6583

 Total job time:  4.38s(wall), 22.94s(cpu)
        *  Thank you very much for using Q-Chem.  Have a nice day.  *
