 Q-Chem 5.3 (devel), Q-Chem, Inc., Pleasanton, CA (2020)
 Q-Chem 5.3.0 for Intel X86 EM64T Linux

User input:
--------------------------------------------------------------
$rem
   JOBTYPE  sp
   EXCHANGE   omegaB97X-D
   BASIS   6-311+G(2df,2pd)
   UNRESTRICTED   False
   max_scf_cycles   250
   geom_opt_max_cycles   1500
   basis2 6-31G*
   scf_algorithm rca_diis
   SYM_IGNORE  TRUE
   print_input   true
   geom_opt_dmax   80
   pop_mulliken false
   XC_GRID 000075000302
$end

$molecule
0 1
C       -4.5206976550     0.5752768634     -0.0411567409
C       -3.3762777796     1.2368204466     -0.0413458173
H       -5.4770814179     0.7731794498     -0.5042764928
H       -4.4411404658     -0.3330464040     0.5455727459
H       -3.0717278462     2.1668922620     -0.5001649850
H       -2.6277848356     0.7115073822     0.5413712901
$end
--------------------------------------------------------------

             Standard Nuclear Orientation (Angstroms)
    I     Atom           X                Y                Z
 ----------------------------------------------------------------
    1      C      -4.5206976550     0.5752768634    -0.0411567409
    2      C      -3.3762777796     1.2368204466    -0.0413458173
    3      H      -5.4770814179     0.7731794498    -0.5042764928
    4      H      -4.4411404658    -0.3330464040     0.5455727459
    5      H      -3.0717278462     2.1668922620    -0.5001649850
    6      H      -2.6277848356     0.7115073822     0.5413712901
 ----------------------------------------------------------------

    7     -78.5463280218      1.02E-06 Convergence criterion met
    5     -78.5785978513      5.09E-06 Convergence criterion met
 Total energy in the final basis set = -78.57859785

                    Orbital Energies (a.u.)
 --------------------------------------------------------------

 Alpha MOs
 -- Occupied --
-10.2840 -10.2830  -0.8683  -0.6742  -0.5653  -0.5081  -0.4329  -0.3620

                    Cartesian Multipole Moments
 -----------------------------------------------------------------
    Charge (ESU x 10^10)
                 0.0000
    Dipole Moment (Debye)
         X       0.0134      Y      -0.0231      Z       0.0175
       Tot       0.0319
    Quadrupole Moments (Debye-Ang)
        XX     -12.5638     XY       0.7013     YY     -13.1836
        XZ       0.6906     YZ      -1.2965     ZZ     -14.5646

 Total job time:  4.30s(wall), 22.66s(cpu)
        *  Thank you very much for using Q-Chem.  Have a nice day.  *
