 Q-Chem 5.3 (devel), Q-Chem, Inc., Pleasanton, CA (2020)
 Q-Chem 5.3.0 for Intel X86 EM64T Linux

User input:
--------------------------------------------------------------
$rem
   JOBTYPE  sp
   EXCHANGE   omegaB97X-D
   BASIS   6-311+G(2df,2pd)
   UNRESTRICTED   False
   max_scf_cycles   250
   geom_opt_max_cycles   1500
   basis2 6-31G*
   scf_algorithm rca_diis
   SYM_IGNORE  TRUE
   print_input   true
   geom_opt_dmax   80
   pop_mulliken false
   XC_GRID 000075000302
$end

$molecule
0 1
C       -4.4525382152     0.4575389880     0.0548979470
C       -3.3080333100     1.1189352603     0.0544591833
H       -5.4441375207     0.8887920848     -0.5601972293
H       -4.5580187852     -0.3399703492     0.5054806176
H       -3.1866778052     2.1929172646     -0.5596430840
H       -2.5653043637     0.8124167516     0.5050025655
$end
--------------------------------------------------------------

             Standard Nuclear Orientation (Angstroms)
    I     Atom           X                Y                Z
 ----------------------------------------------------------------
    1      C      -4.4525382152     0.4575389880     0.0548979470
    2      C      -3.3080333100     1.1189352603     0.0544591833
    3      H      -5.4441375207     0.8887920848    -0.5601972293
    4      H      -4.5580187852    -0.3399703492     0.5054806176
    5      H      -3.1866778052     2.1929172646    -0.5596430840
    6      H      -2.5653043637     0.8124167516     0.5050025655
 ----------------------------------------------------------------

    7     -78.4806990624      7.30E-06 Convergence criterion met
    5     -78.5156265957      5.25E-06 Convergence criterion met
 Total energy in the final basis set = -78.51562660

                    Orbital Energies (a.u.)
 --------------------------------------------------------------

 Alpha MOs
 -- Occupied --
-10.2821 -10.2811  -0.8734  -0.6922  -0.5748  -0.4993  -0.4325  -0.3630

                    Cartesian Multipole Moments
 -----------------------------------------------------------------
    Charge (ESU x 10^10)
                 0.0000
    Dipole Moment (Debye)
         X       0.0785      Y      -0.1344      Z       0.1099
       Tot       0.1905
    Quadrupole Moments (Debye-Ang)
        XX     -13.1566     XY       1.0642     YY     -13.3099
        XZ       0.3684     YZ      -1.2902     ZZ     -14.4839

 Total job time:  4.37s(wall), 22.93s(cpu)
        *  Thank you very much for using Q-Chem.  Have a nice day.  *
