 Q-Chem 5.3 (devel), Q-Chem, Inc., Pleasanton, CA (2020)
 Q-Chem 5.3.0 for Intel X86 EM64T Linux

User input:
--------------------------------------------------------------
$rem
   JOBTYPE  sp
   EXCHANGE   omegaB97X-D
   BASIS   6-311+G(2df,2pd)
   UNRESTRICTED   False
   max_scf_cycles   250
   geom_opt_max_cycles   1500
   basis2 6-31G*
   scf_algorithm rca_diis
   SYM_IGNORE  TRUE
   print_input   true
   geom_opt_dmax   80
   pop_mulliken false
   XC_GRID 000075000302
$end

$molecule
0 1
C       -4.4335414588     0.4241021179     0.0807591796
C       -3.2893744195     1.0860827180     0.0813118814
H       -5.0357346072     1.0889790392     -0.5314378774
H       -4.9166058937     -0.4672081559     0.4507001974
H       -3.5608939807     1.9343612300     -0.5399833442
H       -2.2785596400     1.0643130509     0.4586499632
$end
--------------------------------------------------------------

             Standard Nuclear Orientation (Angstroms)
    I     Atom           X                Y                Z
 ----------------------------------------------------------------
    1      C      -4.4335414588     0.4241021179     0.0807591796
    2      C      -3.2893744195     1.0860827180     0.0813118814
    3      H      -5.0357346072     1.0889790392    -0.5314378774
    4      H      -4.9166058937    -0.4672081559     0.4507001974
    5      H      -3.5608939807     1.9343612300    -0.5399833442
    6      H      -2.2785596400     1.0643130509     0.4586499632
 ----------------------------------------------------------------

    7     -78.5179296719      1.40E-06 Convergence criterion met
    5     -78.5513391575      6.02E-06 Convergence criterion met
 Total energy in the final basis set = -78.55133916

                    Orbital Energies (a.u.)
 --------------------------------------------------------------

 Alpha MOs
 -- Occupied --
-10.2872 -10.2862  -0.8791  -0.6723  -0.5752  -0.5076  -0.4128  -0.3648

                    Cartesian Multipole Moments
 -----------------------------------------------------------------
    Charge (ESU x 10^10)
                -0.0000
    Dipole Moment (Debye)
         X      -0.0312      Y       0.0537      Z      -0.0414
       Tot       0.0747
    Quadrupole Moments (Debye-Ang)
        XX     -12.1382     XY       0.5407     YY     -13.1745
        XZ       0.8296     YZ      -1.1810     ZZ     -14.6583

 Total job time:  4.44s(wall), 23.32s(cpu)
        *  Thank you very much for using Q-Chem.  Have a nice day.  *
