 Q-Chem 5.3 (devel), Q-Chem, Inc., Pleasanton, CA (2020)
 Q-Chem 5.3.0 for Intel X86 EM64T Linux

User input:
--------------------------------------------------------------
$rem
   JOBTYPE  sp
   EXCHANGE   omegaB97X-D
   BASIS   6-311+G(2df,2pd)
   UNRESTRICTED   False
   max_scf_cycles   250
   geom_opt_max_cycles   1500
   basis2 6-31G*
   scf_algorithm rca_diis
   SYM_IGNORE  TRUE
   print_input   true
   geom_opt_dmax   80
   pop_mulliken false
   XC_GRID 000075000302
$end

$molecule
0 1
C       -4.5997476240     0.4622034145     0.0006224053
C       -3.2384846089     1.2479983852     -0.0006355840
H       -5.3194476281     1.0300163652     -0.6026158381
H       -4.4666849888     -0.4458117297     0.6023426502
H       -3.3715511385     2.1560209091     -0.6023439029
H       -2.5187940118     0.6802026557     0.6026302694
$end
--------------------------------------------------------------

             Standard Nuclear Orientation (Angstroms)
    I     Atom           X                Y                Z
 ----------------------------------------------------------------
    1      C      -4.5997476240     0.4622034145     0.0006224053
    2      C      -3.2384846089     1.2479983852    -0.0006355840
    3      H      -5.3194476281     1.0300163652    -0.6026158381
    4      H      -4.4666849888    -0.4458117297     0.6023426502
    5      H      -3.3715511385     2.1560209091    -0.6023439029
    6      H      -2.5187940118     0.6802026557     0.6026302694
 ----------------------------------------------------------------

    8     -78.4841640978      6.09E-08 Convergence criterion met
    5     -78.5175092483      4.58E-06 Convergence criterion met
 Total energy in the final basis set = -78.51750925

                    Orbital Energies (a.u.)
 --------------------------------------------------------------

 Alpha MOs
 -- Occupied --
-10.3165 -10.3163  -0.8266  -0.6705  -0.5779  -0.4859  -0.4271  -0.3269

                    Cartesian Multipole Moments
 -----------------------------------------------------------------
    Charge (ESU x 10^10)
                 0.0000
    Dipole Moment (Debye)
         X      -0.0000      Y       0.0000      Z       0.0000
       Tot       0.0000
    Quadrupole Moments (Debye-Ang)
        XX     -13.6730     XY      -0.3837     YY     -13.2269
        XZ       1.3438     YZ      -2.3230     ZZ     -14.9054

 Total job time:  4.81s(wall), 25.32s(cpu)
        *  Thank you very much for using Q-Chem.  Have a nice day.  *
