 Q-Chem 5.3 (devel), Q-Chem, Inc., Pleasanton, CA (2020)
 Q-Chem 5.3.0 for Intel X86 EM64T Linux

User input:
--------------------------------------------------------------
$rem
   JOBTYPE  sp
   EXCHANGE   omegaB97X-D
   BASIS   6-311+G(2df,2pd)
   UNRESTRICTED   False
   max_scf_cycles   250
   geom_opt_max_cycles   1500
   basis2 6-31G*
   scf_algorithm rca_diis
   SYM_IGNORE  TRUE
   print_input   true
   geom_opt_dmax   80
   pop_mulliken false
   XC_GRID 000075000302
$end

$molecule
0 1
C       -4.4802717733     0.5063128843     0.0152288942
C       -3.3579653252     1.2038979561     -0.0152288664
H       -5.4429713025     0.8984652941     -0.5656418175
H       -4.5716381711     -0.3360369892     0.4982012293
H       -3.2665987669     2.0462460572     -0.4982010086
H       -2.3952646610     0.8117447977     0.5656415690
$end
--------------------------------------------------------------

             Standard Nuclear Orientation (Angstroms)
    I     Atom           X                Y                Z
 ----------------------------------------------------------------
    1      C      -4.4802717733     0.5063128843     0.0152288942
    2      C      -3.3579653252     1.2038979561    -0.0152288664
    3      H      -5.4429713025     0.8984652941    -0.5656418175
    4      H      -4.5716381711    -0.3360369892     0.4982012293
    5      H      -3.2665987669     2.0462460572    -0.4982010086
    6      H      -2.3952646610     0.8117447977     0.5656415690
 ----------------------------------------------------------------

    7     -78.5231692661      7.20E-07 Convergence criterion met
    5     -78.5564373887      4.93E-06 Convergence criterion met
 Total energy in the final basis set = -78.55643739

                    Orbital Energies (a.u.)
 --------------------------------------------------------------

 Alpha MOs
 -- Occupied --
-10.2827 -10.2818  -0.8680  -0.6866  -0.5547  -0.5184  -0.4328  -0.3620

                    Cartesian Multipole Moments
 -----------------------------------------------------------------
    Charge (ESU x 10^10)
                -0.0000
    Dipole Moment (Debye)
         X      -0.0000      Y      -0.0000      Z      -0.0000
       Tot       0.0000
    Quadrupole Moments (Debye-Ang)
        XX     -12.5900     XY       0.5493     YY     -13.0470
        XZ       0.7426     YZ      -1.3915     ZZ     -14.5240

 Total job time:  4.33s(wall), 22.74s(cpu)
        *  Thank you very much for using Q-Chem.  Have a nice day.  *
