 Q-Chem 5.3 (devel), Q-Chem, Inc., Pleasanton, CA (2020)
 Q-Chem 5.3.0 for Intel X86 EM64T Linux

User input:
--------------------------------------------------------------
$rem
   JOBTYPE  sp
   EXCHANGE   omegaB97X-D
   BASIS   6-311+G(2df,2pd)
   UNRESTRICTED   False
   max_scf_cycles   250
   geom_opt_max_cycles   1500
   basis2 6-31G*
   scf_algorithm rca_diis
   SYM_IGNORE  TRUE
   print_input   true
   geom_opt_dmax   80
   pop_mulliken false
   XC_GRID 000075000302
$end

$molecule
0 1
C       -4.5479447256     0.6240801466     0.1610382296
C       -3.4027277926     1.2842425746     0.1618428860
H       -5.2739257020     0.8517498478     -0.6090642102
H       -4.5438320084     -0.4195072353     0.4490426384
H       -3.2449900303     2.0400832692     -0.5969134642
H       -2.5012897412     0.7499813973     0.4340539203
$end
--------------------------------------------------------------

             Standard Nuclear Orientation (Angstroms)
    I     Atom           X                Y                Z
 ----------------------------------------------------------------
    1      C      -4.5479447256     0.6240801466     0.1610382296
    2      C      -3.4027277926     1.2842425746     0.1618428860
    3      H      -5.2739257020     0.8517498478    -0.6090642102
    4      H      -4.5438320084    -0.4195072353     0.4490426384
    5      H      -3.2449900303     2.0400832692    -0.5969134642
    6      H      -2.5012897412     0.7499813973     0.4340539203
 ----------------------------------------------------------------

    7     -78.5330825040      3.00E-06 Convergence criterion met
    5     -78.5654958189      7.32E-06 Convergence criterion met
 Total energy in the final basis set = -78.56549582

                    Orbital Energies (a.u.)
 --------------------------------------------------------------

 Alpha MOs
 -- Occupied --
-10.2840 -10.2831  -0.8713  -0.6728  -0.5611  -0.5092  -0.4313  -0.3623

                    Cartesian Multipole Moments
 -----------------------------------------------------------------
    Charge (ESU x 10^10)
                 0.0000
    Dipole Moment (Debye)
         X       0.2427      Y      -0.4239      Z      -0.6909
       Tot       0.8461
    Quadrupole Moments (Debye-Ang)
        XX     -14.9624     XY       2.1330     YY     -14.0668
        XZ       3.3979     YZ      -1.7990     ZZ     -14.4842

 Total job time:  4.35s(wall), 22.88s(cpu)
        *  Thank you very much for using Q-Chem.  Have a nice day.  *
