 Q-Chem 5.3 (devel), Q-Chem, Inc., Pleasanton, CA (2020)
 Q-Chem 5.3.0 for Intel X86 EM64T Linux

User input:
--------------------------------------------------------------
$rem
   JOBTYPE  sp
   EXCHANGE   omegaB97X-D
   BASIS   6-311+G(2df,2pd)
   UNRESTRICTED   True
   max_scf_cycles   250
   geom_opt_max_cycles   1500
   basis2 6-31G*
   scf_algorithm rca_diis
   SYM_IGNORE  TRUE
   print_input   true
   geom_opt_dmax   80
   pop_mulliken false
   XC_GRID 000075000302
$end

$molecule
0 2
N       -0.4561015334     0.7517146679     0.0000000000
O       0.6474033962     0.2433087487     0.0000000000
O       -1.5759918630     0.2805065834     0.0000000000
$end
--------------------------------------------------------------

             Standard Nuclear Orientation (Angstroms)
    I     Atom           X                Y                Z
 ----------------------------------------------------------------
    1      N      -0.4561015334     0.7517146679     0.0000000000
    2      O       0.6474033962     0.2433087487     0.0000000000
    3      O      -1.5759918630     0.2805065834     0.0000000000
 ----------------------------------------------------------------

    8    -204.9986779918      1.76E-05 Convergence criterion met
    7    -205.0768787398      7.85E-06 Convergence criterion met
 Total energy in the final basis set = -205.07687874

                    Orbital Energies (a.u.)
 --------------------------------------------------------------

 Alpha MOs
 -- Occupied --
-19.3717 -19.3717 -14.6951  -1.3859  -1.2380  -0.7895  -0.6743  -0.6734
 -0.6623  -0.4792  -0.4707  -0.3926

 Beta MOs
 -- Occupied --
-19.3635 -19.3635 -14.6856  -1.3660  -1.2151  -0.7537  -0.6505  -0.6475
 -0.6281  -0.4625  -0.4346

                    Cartesian Multipole Moments
 -----------------------------------------------------------------
    Charge (ESU x 10^10)
                -0.0000
    Dipole Moment (Debye)
         X       0.0066      Y       0.3834      Z       0.0000
       Tot       0.3835
    Quadrupole Moments (Debye-Ang)
        XX     -17.9570     XY      -0.1355     YY     -15.3104
        XZ      -0.0000     YZ       0.0000     ZZ     -14.9471

 Total job time:  5.76s(wall), 27.44s(cpu)
        *  Thank you very much for using Q-Chem.  Have a nice day.  *
