 Q-Chem 5.3 (devel), Q-Chem, Inc., Pleasanton, CA (2020)
 Q-Chem 5.3.0 for Intel X86 EM64T Linux

User input:
--------------------------------------------------------------
$rem
   JOBTYPE  sp
   EXCHANGE   omegaB97X-D
   BASIS   6-311+G(2df,2pd)
   UNRESTRICTED   True
   max_scf_cycles   250
   geom_opt_max_cycles   1500
   basis2 6-31G*
   scf_algorithm rca_diis
   SYM_IGNORE  TRUE
   print_input   true
   geom_opt_dmax   80
   pop_mulliken false
   XC_GRID 000075000302
$end

$molecule
0 2
N       -0.3420567294     0.7238725355     0.0000000000
O       0.5725802918     0.2816041069     0.0000000000
O       -1.6152135625     0.2700533576     0.0000000000
$end
--------------------------------------------------------------

             Standard Nuclear Orientation (Angstroms)
    I     Atom           X                Y                Z
 ----------------------------------------------------------------
    1      N      -0.3420567294     0.7238725355     0.0000000000
    2      O       0.5725802918     0.2816041069     0.0000000000
    3      O      -1.6152135625     0.2700533576     0.0000000000
 ----------------------------------------------------------------

   11    -204.9160244445      2.81E-05 Convergence criterion met
   10    -205.0076296794      8.29E-06 Convergence criterion met
 Total energy in the final basis set = -205.00762968

                    Orbital Energies (a.u.)
 --------------------------------------------------------------

 Alpha MOs
 -- Occupied --
-19.4107 -19.3160 -14.6808  -1.5283  -1.1715  -0.7913  -0.7382  -0.7334
 -0.6817  -0.4468  -0.4414  -0.3655

 Beta MOs
 -- Occupied --
-19.4044 -19.3055 -14.6725  -1.5142  -1.1421  -0.7636  -0.7244  -0.6980
 -0.6445  -0.4293  -0.4099

                    Cartesian Multipole Moments
 -----------------------------------------------------------------
    Charge (ESU x 10^10)
                -0.0000
    Dipole Moment (Debye)
         X       1.9752      Y       0.2753      Z      -0.0000
       Tot       1.9943
    Quadrupole Moments (Debye-Ang)
        XX     -19.6288     XY       1.0043     YY     -15.3869
        XZ       0.0000     YZ      -0.0000     ZZ     -14.8539

 Total job time:  9.40s(wall), 40.97s(cpu)
        *  Thank you very much for using Q-Chem.  Have a nice day.  *
