 Q-Chem 5.3 (devel), Q-Chem, Inc., Pleasanton, CA (2020)
 Q-Chem 5.3.0 for Intel X86 EM64T Linux

User input:
--------------------------------------------------------------
$rem
   JOBTYPE  sp
   EXCHANGE   omegaB97X-D
   BASIS   6-311+G(2df,2pd)
   UNRESTRICTED   True
   max_scf_cycles   250
   geom_opt_max_cycles   1500
   basis2 6-31G*
   scf_algorithm rca_diis
   SYM_IGNORE  TRUE
   print_input   true
   geom_opt_dmax   80
   pop_mulliken false
   XC_GRID 000075000302
$end

$molecule
0 2
N       -0.4549630603     0.8208376114     0.0000000000
O       0.7012709985     0.2078326476     0.0000000000
O       -1.6309979382     0.2468597410     0.0000000000
$end
--------------------------------------------------------------

             Standard Nuclear Orientation (Angstroms)
    I     Atom           X                Y                Z
 ----------------------------------------------------------------
    1      N      -0.4549630603     0.8208376114     0.0000000000
    2      O       0.7012709985     0.2078326476     0.0000000000
    3      O      -1.6309979382     0.2468597410     0.0000000000
 ----------------------------------------------------------------

    7    -204.9660858858      8.77E-05 Convergence criterion met
    8    -205.0408455208      2.43E-06 Convergence criterion met
 Total energy in the final basis set = -205.04084552

                    Orbital Energies (a.u.)
 --------------------------------------------------------------

 Alpha MOs
 -- Occupied --
-19.3851 -19.3851 -14.7053  -1.3229  -1.1885  -0.8150  -0.6626  -0.6403
 -0.6232  -0.4746  -0.4651  -0.4299

 Beta MOs
 -- Occupied --
-19.3762 -19.3762 -14.6973  -1.3024  -1.1629  -0.7783  -0.6318  -0.6125
 -0.5975  -0.4551  -0.4267

                    Cartesian Multipole Moments
 -----------------------------------------------------------------
    Charge (ESU x 10^10)
                 0.0000
    Dipole Moment (Debye)
         X       0.0072      Y       0.4060      Z       0.0000
       Tot       0.4060
    Quadrupole Moments (Debye-Ang)
        XX     -17.9550     XY      -0.1464     YY     -15.3263
        XZ      -0.0000     YZ       0.0000     ZZ     -15.3039

 Total job time:  5.64s(wall), 25.65s(cpu)
        *  Thank you very much for using Q-Chem.  Have a nice day.  *
