 Q-Chem 5.3 (devel), Q-Chem, Inc., Pleasanton, CA (2020)
 Q-Chem 5.3.0 for Intel X86 EM64T Linux

User input:
--------------------------------------------------------------
$rem
   JOBTYPE  sp
   EXCHANGE   omegaB97X-D
   BASIS   6-311+G(2df,2pd)
   UNRESTRICTED   True
   max_scf_cycles   250
   geom_opt_max_cycles   1500
   basis2 6-31G*
   scf_algorithm rca_diis
   SYM_IGNORE  TRUE
   print_input   true
   geom_opt_dmax   80
   pop_mulliken false
   XC_GRID 000075000302
$end

$molecule
0 2
N       -0.4600643419     0.5172638048     0.0000000000
O       0.7317440817     0.3591486287     0.0000000000
O       -1.6563697399     0.3991175666     0.0000000000
$end
--------------------------------------------------------------

             Standard Nuclear Orientation (Angstroms)
    I     Atom           X                Y                Z
 ----------------------------------------------------------------
    1      N      -0.4600643419     0.5172638048     0.0000000000
    2      O       0.7317440817     0.3591486287     0.0000000000
    3      O      -1.6563697399     0.3991175666     0.0000000000
 ----------------------------------------------------------------

    7    -204.9563274079      5.19E-05 Convergence criterion met
    9    -205.0352953217      8.12E-06 Convergence criterion met
 Total energy in the final basis set = -205.03529532

                    Orbital Energies (a.u.)
 --------------------------------------------------------------

 Alpha MOs
 -- Occupied --
-19.3778 -19.3778 -14.6762  -1.3753  -1.2645  -0.7770  -0.6812  -0.6710
 -0.6642  -0.5030  -0.4770  -0.2966

 Beta MOs
 -- Occupied --
-19.3709 -19.3708 -14.6629  -1.3528  -1.2478  -0.7488  -0.6547  -0.6510
 -0.6232  -0.4716  -0.4522

                    Cartesian Multipole Moments
 -----------------------------------------------------------------
    Charge (ESU x 10^10)
                -0.0000
    Dipole Moment (Debye)
         X      -0.0012      Y      -0.0297      Z       0.0000
       Tot       0.0297
    Quadrupole Moments (Debye-Ang)
        XX     -18.0209     XY       0.0507     YY     -15.8090
        XZ      -0.0000     YZ      -0.0000     ZZ     -14.8451

 Total job time:  6.15s(wall), 29.91s(cpu)
        *  Thank you very much for using Q-Chem.  Have a nice day.  *
