 Q-Chem 5.3 (devel), Q-Chem, Inc., Pleasanton, CA (2020)
 Q-Chem 5.3.0 for Intel X86 EM64T Linux

User input:
--------------------------------------------------------------
$rem
   JOBTYPE  sp
   EXCHANGE   omegaB97X-D
   BASIS   6-311+G(2df,2pd)
   UNRESTRICTED   True
   max_scf_cycles   250
   geom_opt_max_cycles   1500
   basis2 6-31G*
   scf_algorithm rca_diis
   SYM_IGNORE  TRUE
   print_input   true
   geom_opt_dmax   80
   pop_mulliken false
   XC_GRID 000075000302
$end

$molecule
0 2
N       -0.4553596567     0.7947178543     0.0000000000
O       0.5741556459     0.2230308806     0.0000000000
O       -1.5034859892     0.2577812651     0.0000000000
$end
--------------------------------------------------------------

             Standard Nuclear Orientation (Angstroms)
    I     Atom           X                Y                Z
 ----------------------------------------------------------------
    1      N      -0.4553596567     0.7947178543     0.0000000000
    2      O       0.5741556459     0.2230308806     0.0000000000
    3      O      -1.5034859892     0.2577812651     0.0000000000
 ----------------------------------------------------------------

    7    -204.9913860245      7.47E-05 Convergence criterion met
    8    -205.0719245722      3.99E-06 Convergence criterion met
 Total energy in the final basis set = -205.07192457

                    Orbital Energies (a.u.)
 --------------------------------------------------------------

 Alpha MOs
 -- Occupied --
-19.3591 -19.3591 -14.6897  -1.4228  -1.2461  -0.7832  -0.6879  -0.6804
 -0.6731  -0.4677  -0.4660  -0.4025

 Beta MOs
 -- Occupied --
-19.3510 -19.3510 -14.6807  -1.4040  -1.2227  -0.7443  -0.6690  -0.6480
 -0.6450  -0.4592  -0.4218

                    Cartesian Multipole Moments
 -----------------------------------------------------------------
    Charge (ESU x 10^10)
                 0.0000
    Dipole Moment (Debye)
         X       0.0090      Y       0.5385      Z       0.0000
       Tot       0.5385
    Quadrupole Moments (Debye-Ang)
        XX     -18.0363     XY      -0.2005     YY     -14.9380
        XZ      -0.0000     YZ       0.0000     ZZ     -14.7899

 Total job time:  8.06s(wall), 33.02s(cpu)
        *  Thank you very much for using Q-Chem.  Have a nice day.  *
