 Q-Chem 5.3 (devel), Q-Chem, Inc., Pleasanton, CA (2020)
 Q-Chem 5.3.0 for Intel X86 EM64T Linux

User input:
--------------------------------------------------------------
$rem
   JOBTYPE  sp
   EXCHANGE   omegaB97X-D
   BASIS   6-311+G(2df,2pd)
   UNRESTRICTED   True
   max_scf_cycles   250
   geom_opt_max_cycles   1500
   basis2 6-31G*
   scf_algorithm rca_diis
   SYM_IGNORE  TRUE
   print_input   true
   geom_opt_dmax   80
   pop_mulliken false
   XC_GRID 000075000302
$end

$molecule
0 2
N       -0.4548322971     0.8257154672     0.0000000000
O       0.5441396044     0.2080315727     0.0000000000
O       -1.4739973074     0.2417829601     0.0000000000
$end
--------------------------------------------------------------

             Standard Nuclear Orientation (Angstroms)
    I     Atom           X                Y                Z
 ----------------------------------------------------------------
    1      N      -0.4548322971     0.8257154672     0.0000000000
    2      O       0.5441396044     0.2080315727     0.0000000000
    3      O      -1.4739973074     0.2417829601     0.0000000000
 ----------------------------------------------------------------

    7    -204.9800052819      8.57E-05 Convergence criterion met
    7    -205.0607445293      8.93E-06 Convergence criterion met
 Total energy in the final basis set = -205.06074453

                    Orbital Energies (a.u.)
 --------------------------------------------------------------

 Alpha MOs
 -- Occupied --
-19.3548 -19.3547 -14.6893  -1.4312  -1.2384  -0.7849  -0.6883  -0.6825
 -0.6709  -0.4641  -0.4559  -0.4149

 Beta MOs
 -- Occupied --
-19.3466 -19.3466 -14.6807  -1.4127  -1.2145  -0.7441  -0.6713  -0.6473
 -0.6455  -0.4554  -0.4113

                    Cartesian Multipole Moments
 -----------------------------------------------------------------
    Charge (ESU x 10^10)
                 0.0000
    Dipole Moment (Debye)
         X       0.0109      Y       0.6216      Z       0.0000
       Tot       0.6217
    Quadrupole Moments (Debye-Ang)
        XX     -18.1032     XY      -0.2350     YY     -14.7411
        XZ      -0.0000     YZ       0.0000     ZZ     -14.7742

 Total job time:  7.40s(wall), 30.66s(cpu)
        *  Thank you very much for using Q-Chem.  Have a nice day.  *
