 Q-Chem 5.3 (devel), Q-Chem, Inc., Pleasanton, CA (2020)
 Q-Chem 5.3.0 for Intel X86 EM64T Linux

User input:
--------------------------------------------------------------
$rem
   JOBTYPE  sp
   EXCHANGE   omegaB97X-D
   BASIS   6-311+G(2df,2pd)
   UNRESTRICTED   True
   max_scf_cycles   250
   geom_opt_max_cycles   1500
   basis2 6-31G*
   scf_algorithm rca_diis
   SYM_IGNORE  TRUE
   print_input   true
   geom_opt_dmax   80
   pop_mulliken false
   XC_GRID 000075000302
$end

$molecule
0 2
N       -0.4553520482     0.7972245133     0.0000000000
O       0.6842154062     0.2199291028     0.0000000000
O       -1.6135533581     0.2583763839     0.0000000000
$end
--------------------------------------------------------------

             Standard Nuclear Orientation (Angstroms)
    I     Atom           X                Y                Z
 ----------------------------------------------------------------
    1      N      -0.4553520482     0.7972245133     0.0000000000
    2      O       0.6842154062     0.2199291028     0.0000000000
    3      O      -1.6135533581     0.2583763839     0.0000000000
 ----------------------------------------------------------------

    9    -204.9807680709      1.13E-05 Convergence criterion met
    8    -205.0563180195      5.76E-06 Convergence criterion met
 Total energy in the final basis set = -205.05631802

                    Orbital Energies (a.u.)
 --------------------------------------------------------------

 Alpha MOs
 -- Occupied --
-19.3811 -19.3810 -14.7024  -1.3430  -1.2035  -0.8066  -0.6667  -0.6510
 -0.6355  -0.4760  -0.4667  -0.4188

 Beta MOs
 -- Occupied --
-19.3725 -19.3724 -14.6938  -1.3227  -1.1789  -0.7700  -0.6374  -0.6243
 -0.6067  -0.4574  -0.4293

                    Cartesian Multipole Moments
 -----------------------------------------------------------------
    Charge (ESU x 10^10)
                -0.0000
    Dipole Moment (Debye)
         X       0.0073      Y       0.3990      Z      -0.0000
       Tot       0.3991
    Quadrupole Moments (Debye-Ang)
        XX     -17.9568     XY      -0.1431     YY     -15.3281
        XZ       0.0000     YZ      -0.0000     ZZ     -15.1884

 Total job time:  7.07s(wall), 33.81s(cpu)
        *  Thank you very much for using Q-Chem.  Have a nice day.  *
