 Q-Chem 5.3 (devel), Q-Chem, Inc., Pleasanton, CA (2020)
 Q-Chem 5.3.0 for Intel X86 EM64T Linux

User input:
--------------------------------------------------------------
$rem
   JOBTYPE  sp
   EXCHANGE   omegaB97X-D
   BASIS   6-311+G(2df,2pd)
   UNRESTRICTED   True
   max_scf_cycles   250
   geom_opt_max_cycles   1500
   basis2 6-31G*
   scf_algorithm rca_diis
   SYM_IGNORE  TRUE
   print_input   true
   geom_opt_dmax   80
   pop_mulliken false
   XC_GRID 000075000302
$end

$molecule
0 2
N       -0.5137565978     0.7297882274     0.0000000000
O       0.6565473823     0.2426005281     0.0000000000
O       -1.5274807846     0.3031412445     0.0000000000
$end
--------------------------------------------------------------

             Standard Nuclear Orientation (Angstroms)
    I     Atom           X                Y                Z
 ----------------------------------------------------------------
    1      N      -0.5137565978     0.7297882274     0.0000000000
    2      O       0.6565473823     0.2426005281     0.0000000000
    3      O      -1.5274807846     0.3031412445     0.0000000000
 ----------------------------------------------------------------

    9    -204.9805075022      3.27E-05 Convergence criterion met
    8    -205.0633904848      5.11E-06 Convergence criterion met
 Total energy in the final basis set = -205.06339048

                    Orbital Energies (a.u.)
 --------------------------------------------------------------

 Alpha MOs
 -- Occupied --
-19.3882 -19.3429 -14.6877  -1.4480  -1.2267  -0.7833  -0.7008  -0.6922
 -0.6777  -0.4713  -0.4638  -0.3743

 Beta MOs
 -- Occupied --
-19.3810 -19.3340 -14.6782  -1.4304  -1.2021  -0.7501  -0.6810  -0.6585
 -0.6470  -0.4549  -0.4297

                    Cartesian Multipole Moments
 -----------------------------------------------------------------
    Charge (ESU x 10^10)
                -0.0000
    Dipole Moment (Debye)
         X      -0.9554      Y       0.3733      Z      -0.0000
       Tot       1.0257
    Quadrupole Moments (Debye-Ang)
        XX     -17.0289     XY      -0.6801     YY     -15.2918
        XZ       0.0000     YZ       0.0000     ZZ     -14.8312

 Total job time:  7.27s(wall), 33.02s(cpu)
        *  Thank you very much for using Q-Chem.  Have a nice day.  *
