 Q-Chem 5.3 (devel), Q-Chem, Inc., Pleasanton, CA (2020)
 Q-Chem 5.3.0 for Intel X86 EM64T Linux

User input:
--------------------------------------------------------------
$rem
   JOBTYPE  sp
   EXCHANGE   omegaB97X-D
   BASIS   6-311+G(2df,2pd)
   UNRESTRICTED   True
   max_scf_cycles   250
   geom_opt_max_cycles   1500
   basis2 6-31G*
   scf_algorithm rca_diis
   SYM_IGNORE  TRUE
   print_input   true
   geom_opt_dmax   80
   pop_mulliken false
   XC_GRID 000075000302
$end

$molecule
0 2
N       -0.4570339501     0.6961060267     0.0000000000
O       0.6510839628     0.2710590384     0.0000000000
O       -1.5787400129     0.3083649349     0.0000000000
$end
--------------------------------------------------------------

             Standard Nuclear Orientation (Angstroms)
    I     Atom           X                Y                Z
 ----------------------------------------------------------------
    1      N      -0.4570339501     0.6961060267     0.0000000000
    2      O       0.6510839628     0.2710590384     0.0000000000
    3      O      -1.5787400129     0.3083649349     0.0000000000
 ----------------------------------------------------------------

    7    -204.9980729302      5.32E-05 Convergence criterion met
    8    -205.0782281791      5.56E-06 Convergence criterion met
 Total energy in the final basis set = -205.07822818

                    Orbital Energies (a.u.)
 --------------------------------------------------------------

 Alpha MOs
 -- Occupied --
-19.3693 -19.3692 -14.6903  -1.4025  -1.2616  -0.7804  -0.6862  -0.6767
 -0.6753  -0.4868  -0.4749  -0.3643

 Beta MOs
 -- Occupied --
-19.3615 -19.3613 -14.6800  -1.3823  -1.2400  -0.7467  -0.6629  -0.6534
 -0.6380  -0.4674  -0.4429

                    Cartesian Multipole Moments
 -----------------------------------------------------------------
    Charge (ESU x 10^10)
                -0.0000
    Dipole Moment (Debye)
         X       0.0058      Y       0.2923      Z       0.0000
       Tot       0.2923
    Quadrupole Moments (Debye-Ang)
        XX     -17.9288     XY      -0.0954     YY     -15.4499
        XZ      -0.0000     YZ       0.0000     ZZ     -14.8415

 Total job time:  8.36s(wall), 34.68s(cpu)
        *  Thank you very much for using Q-Chem.  Have a nice day.  *
