 Q-Chem 5.3 (devel), Q-Chem, Inc., Pleasanton, CA (2020)
 Q-Chem 5.3.0 for Intel X86 EM64T Linux

User input:
--------------------------------------------------------------
$rem
   JOBTYPE  sp
   EXCHANGE   omegaB97X-D
   BASIS   6-311+G(2df,2pd)
   UNRESTRICTED   True
   max_scf_cycles   250
   geom_opt_max_cycles   1500
   basis2 6-31G*
   scf_algorithm rca_diis
   SYM_IGNORE  TRUE
   print_input   true
   geom_opt_dmax   80
   pop_mulliken false
   XC_GRID 000075000302
$end

$molecule
0 2
N       -0.4571509823     0.6879459960     0.0000000000
O       0.5858250268     0.2762358525     0.0000000000
O       -1.5133640446     0.3113481515     0.0000000000
$end
--------------------------------------------------------------

             Standard Nuclear Orientation (Angstroms)
    I     Atom           X                Y                Z
 ----------------------------------------------------------------
    1      N      -0.4571509823     0.6879459960     0.0000000000
    2      O       0.5858250268     0.2762358525     0.0000000000
    3      O      -1.5133640446     0.3113481515     0.0000000000
 ----------------------------------------------------------------

    7    -204.9779097768      3.66E-05 Convergence criterion met
    8    -205.0645843579      2.03E-06 Convergence criterion met
 Total energy in the final basis set = -205.06458436

                    Orbital Energies (a.u.)
 --------------------------------------------------------------

 Alpha MOs
 -- Occupied --
-19.3550 -19.3549 -14.6794  -1.4567  -1.3017  -0.7667  -0.7130  -0.7093
 -0.6806  -0.4860  -0.4787  -0.3417

 Beta MOs
 -- Occupied --
-19.3474 -19.3473 -14.6692  -1.4375  -1.2809  -0.7308  -0.6970  -0.6689
 -0.6599  -0.4714  -0.4435

                    Cartesian Multipole Moments
 -----------------------------------------------------------------
    Charge (ESU x 10^10)
                -0.0000
    Dipole Moment (Debye)
         X       0.0061      Y       0.3492      Z       0.0000
       Tot       0.3493
    Quadrupole Moments (Debye-Ang)
        XX     -17.9077     XY      -0.1194     YY     -15.2648
        XZ       0.0000     YZ      -0.0000     ZZ     -14.5826

 Total job time:  6.80s(wall), 27.62s(cpu)
        *  Thank you very much for using Q-Chem.  Have a nice day.  *
