 Q-Chem 5.3 (devel), Q-Chem, Inc., Pleasanton, CA (2020)
 Q-Chem 5.3.0 for Intel X86 EM64T Linux

User input:
--------------------------------------------------------------
$rem
   JOBTYPE  sp
   EXCHANGE   omegaB97X-D
   BASIS   6-311+G(2df,2pd)
   UNRESTRICTED   True
   max_scf_cycles   250
   geom_opt_max_cycles   1500
   basis2 6-31G*
   scf_algorithm rca_diis
   SYM_IGNORE  TRUE
   print_input   true
   geom_opt_dmax   80
   pop_mulliken false
   XC_GRID 000075000302
$end

$molecule
0 2
N       -0.4576191636     0.6615909352     0.0000000000
O       0.6721248883     0.2879679630     0.0000000000
O       -1.5991957248     0.3259711018     0.0000000000
$end
--------------------------------------------------------------

             Standard Nuclear Orientation (Angstroms)
    I     Atom           X                Y                Z
 ----------------------------------------------------------------
    1      N      -0.4576191636     0.6615909352     0.0000000000
    2      O       0.6721248883     0.2879679630     0.0000000000
    3      O      -1.5991957248     0.3259711018     0.0000000000
 ----------------------------------------------------------------

    7    -204.9934756586      5.00E-05 Convergence criterion met
    8    -205.0735179702      9.56E-06 Convergence criterion met
 Total energy in the final basis set = -205.07351797

                    Orbital Energies (a.u.)
 --------------------------------------------------------------

 Alpha MOs
 -- Occupied --
-19.3718 -19.3717 -14.6896  -1.3968  -1.2646  -0.7799  -0.6854  -0.6769
 -0.6736  -0.4914  -0.4762  -0.3509

 Beta MOs
 -- Occupied --
-19.3641 -19.3640 -14.6789  -1.3761  -1.2436  -0.7478  -0.6610  -0.6546
 -0.6355  -0.4691  -0.4472

                    Cartesian Multipole Moments
 -----------------------------------------------------------------
    Charge (ESU x 10^10)
                -0.0000
    Dipole Moment (Debye)
         X       0.0040      Y       0.2130      Z       0.0000
       Tot       0.2130
    Quadrupole Moments (Debye-Ang)
        XX     -17.9179     XY      -0.0608     YY     -15.5853
        XZ      -0.0000     YZ       0.0000     ZZ     -14.8582

 Total job time:  5.82s(wall), 27.42s(cpu)
        *  Thank you very much for using Q-Chem.  Have a nice day.  *
