 Q-Chem 5.3 (devel), Q-Chem, Inc., Pleasanton, CA (2020)
 Q-Chem 5.3.0 for Intel X86 EM64T Linux

User input:
--------------------------------------------------------------
$rem
   JOBTYPE  sp
   EXCHANGE   omegaB97X-D
   BASIS   6-311+G(2df,2pd)
   UNRESTRICTED   True
   max_scf_cycles   250
   geom_opt_max_cycles   1500
   basis2 6-31G*
   scf_algorithm rca_diis
   SYM_IGNORE  TRUE
   print_input   true
   geom_opt_dmax   80
   pop_mulliken false
   XC_GRID 000075000302
$end

$molecule
0 2
N       -0.4564615492     0.7298457322     0.0000000000
O       0.6276987432     0.2545771624     0.0000000000
O       -1.5559271941     0.2911071054     0.0000000000
$end
--------------------------------------------------------------

             Standard Nuclear Orientation (Angstroms)
    I     Atom           X                Y                Z
 ----------------------------------------------------------------
    1      N      -0.4564615492     0.7298457322     0.0000000000
    2      O       0.6276987432     0.2545771624     0.0000000000
    3      O      -1.5559271941     0.2911071054     0.0000000000
 ----------------------------------------------------------------

    7    -204.9996472860      5.84E-05 Convergence criterion met
    7    -205.0799146089      9.58E-06 Convergence criterion met
 Total energy in the final basis set = -205.07991461

                    Orbital Energies (a.u.)
 --------------------------------------------------------------

 Alpha MOs
 -- Occupied --
-19.3665 -19.3663 -14.6905  -1.4087  -1.2576  -0.7811  -0.6868  -0.6770
 -0.6761  -0.4812  -0.4730  -0.3774

 Beta MOs
 -- Occupied --
-19.3585 -19.3583 -14.6806  -1.3890  -1.2354  -0.7458  -0.6649  -0.6520
 -0.6404  -0.4652  -0.4374

                    Cartesian Multipole Moments
 -----------------------------------------------------------------
    Charge (ESU x 10^10)
                -0.0000
    Dipole Moment (Debye)
         X       0.0079      Y       0.3735      Z      -0.0000
       Tot       0.3736
    Quadrupole Moments (Debye-Ang)
        XX     -17.9513     XY      -0.1303     YY     -15.2947
        XZ      -0.0000     YZ      -0.0000     ZZ     -14.8237

 Total job time:  6.95s(wall), 31.54s(cpu)
        *  Thank you very much for using Q-Chem.  Have a nice day.  *
