 Q-Chem 5.3 (devel), Q-Chem, Inc., Pleasanton, CA (2020)
 Q-Chem 5.3.0 for Intel X86 EM64T Linux

User input:
--------------------------------------------------------------
$rem
   JOBTYPE  sp
   EXCHANGE   omegaB97X-D
   BASIS   6-311+G(2df,2pd)
   UNRESTRICTED   True
   max_scf_cycles   250
   geom_opt_max_cycles   1500
   basis2 6-31G*
   scf_algorithm rca_diis
   SYM_IGNORE  TRUE
   print_input   true
   geom_opt_dmax   80
   pop_mulliken false
   XC_GRID 000075000302
$end

$molecule
0 2
N       -0.4851100171     0.7300711036     0.0000000000
O       0.6420199924     0.2484679970     0.0000000000
O       -1.5415999754     0.2969908994     0.0000000000
$end
--------------------------------------------------------------

             Standard Nuclear Orientation (Angstroms)
    I     Atom           X                Y                Z
 ----------------------------------------------------------------
    1      N      -0.4851100171     0.7300711036     0.0000000000
    2      O       0.6420199924     0.2484679970     0.0000000000
    3      O      -1.5415999754     0.2969908994     0.0000000000
 ----------------------------------------------------------------

    9    -204.9949644445      1.93E-05 Convergence criterion met
    7    -205.0758710732      7.98E-06 Convergence criterion met
 Total energy in the final basis set = -205.07587107

                    Orbital Energies (a.u.)
 --------------------------------------------------------------

 Alpha MOs
 -- Occupied --
-19.3773 -19.3549 -14.6897  -1.4199  -1.2485  -0.7816  -0.6904  -0.6809
 -0.6765  -0.4786  -0.4706  -0.3765

 Beta MOs
 -- Occupied --
-19.3697 -19.3465 -14.6799  -1.4008  -1.2256  -0.7468  -0.6690  -0.6525
 -0.6432  -0.4625  -0.4354

                    Cartesian Multipole Moments
 -----------------------------------------------------------------
    Charge (ESU x 10^10)
                -0.0000
    Dipole Moment (Debye)
         X      -0.4712      Y       0.3776      Z      -0.0000
       Tot       0.6038
    Quadrupole Moments (Debye-Ang)
        XX     -17.5017     XY      -0.4073     YY     -15.2899
        XZ       0.0000     YZ      -0.0000     ZZ     -14.8259

 Total job time:  6.85s(wall), 32.77s(cpu)
        *  Thank you very much for using Q-Chem.  Have a nice day.  *
