 Q-Chem 5.3 (devel), Q-Chem, Inc., Pleasanton, CA (2020)
 Q-Chem 5.3.0 for Intel X86 EM64T Linux

User input:
--------------------------------------------------------------
$rem
   JOBTYPE  sp
   EXCHANGE   omegaB97X-D
   BASIS   6-311+G(2df,2pd)
   UNRESTRICTED   True
   max_scf_cycles   250
   geom_opt_max_cycles   1500
   basis2 6-31G*
   scf_algorithm rca_diis
   SYM_IGNORE  TRUE
   print_input   true
   geom_opt_dmax   80
   pop_mulliken false
   XC_GRID 000075000302
$end

$molecule
0 2
N       -0.4538297411     0.8845155272     0.0000000000
O       0.4780063635     0.1797334877     0.0000000000
O       -1.4088666225     0.2112809850     0.0000000000
$end
--------------------------------------------------------------

             Standard Nuclear Orientation (Angstroms)
    I     Atom           X                Y                Z
 ----------------------------------------------------------------
    1      N      -0.4538297411     0.8845155272     0.0000000000
    2      O       0.4780063635     0.1797334877     0.0000000000
    3      O      -1.4088666225     0.2112809850     0.0000000000
 ----------------------------------------------------------------

    8    -204.9368824132      3.99E-05 Convergence criterion met
   13    -205.0075868125      7.07E-06 Convergence criterion met
 Total energy in the final basis set = -205.00758681

                    Orbital Energies (a.u.)
 --------------------------------------------------------------

 Alpha MOs
 -- Occupied --
-19.3838 -19.3838 -14.6388  -1.4704  -1.2380  -0.7870  -0.7001  -0.6890
 -0.6785  -0.4853  -0.4847  -0.4147

 Beta MOs
 -- Occupied --
-19.3701 -19.3700 -14.6400  -1.4461  -1.2023  -0.7639  -0.6815  -0.6584
 -0.6358  -0.4653  -0.3731

                    Cartesian Multipole Moments
 -----------------------------------------------------------------
    Charge (ESU x 10^10)
                 0.0000
    Dipole Moment (Debye)
         X       0.0051      Y       0.2730      Z       0.0000
       Tot       0.2730
    Quadrupole Moments (Debye-Ang)
        XX     -15.9883     XY      -0.1376     YY     -16.5575
        XZ      -0.0000     YZ       0.0000     ZZ     -14.9107

 Total job time:  8.32s(wall), 40.39s(cpu)
        *  Thank you very much for using Q-Chem.  Have a nice day.  *
