 Q-Chem 5.3 (devel), Q-Chem, Inc., Pleasanton, CA (2020)
 Q-Chem 5.3.0 for Intel X86 EM64T Linux

User input:
--------------------------------------------------------------
$rem
   JOBTYPE  sp
   EXCHANGE   omegaB97X-D
   BASIS   6-311+G(2df,2pd)
   UNRESTRICTED   True
   max_scf_cycles   250
   geom_opt_max_cycles   1500
   basis2 6-31G*
   scf_algorithm rca_diis
   SYM_IGNORE  TRUE
   print_input   true
   geom_opt_dmax   80
   pop_mulliken false
   XC_GRID 000075000302
$end

$molecule
0 2
N       -0.4568114392     0.7085852493     0.0000000000
O       0.6071636119     0.2655551449     0.0000000000
O       -1.5350421728     0.3013896057     0.0000000000
$end
--------------------------------------------------------------

             Standard Nuclear Orientation (Angstroms)
    I     Atom           X                Y                Z
 ----------------------------------------------------------------
    1      N      -0.4568114392     0.7085852493     0.0000000000
    2      O       0.6071636119     0.2655551449     0.0000000000
    3      O      -1.5350421728     0.3013896057     0.0000000000
 ----------------------------------------------------------------

    7    -204.9933355387      6.05E-05 Convergence criterion met
    8    -205.0763611051      1.88E-06 Convergence criterion met
 Total energy in the final basis set = -205.07636111

                    Orbital Energies (a.u.)
 --------------------------------------------------------------

 Alpha MOs
 -- Occupied --
-19.3607 -19.3607 -14.6851  -1.4323  -1.2788  -0.7732  -0.6999  -0.6926
 -0.6784  -0.4834  -0.4756  -0.3604

 Beta MOs
 -- Occupied --
-19.3530 -19.3529 -14.6750  -1.4128  -1.2573  -0.7381  -0.6803  -0.6561
 -0.6539  -0.4682  -0.4403

                    Cartesian Multipole Moments
 -----------------------------------------------------------------
    Charge (ESU x 10^10)
                -0.0000
    Dipole Moment (Debye)
         X       0.0063      Y       0.3622      Z       0.0000
       Tot       0.3623
    Quadrupole Moments (Debye-Ang)
        XX     -17.9355     XY      -0.1253     YY     -15.2781
        XZ       0.0000     YZ       0.0000     ZZ     -14.7013

 Total job time:  7.76s(wall), 32.33s(cpu)
        *  Thank you very much for using Q-Chem.  Have a nice day.  *
