 Q-Chem 5.3 (devel), Q-Chem, Inc., Pleasanton, CA (2020)
 Q-Chem 5.3.0 for Intel X86 EM64T Linux

User input:
--------------------------------------------------------------
$rem
   JOBTYPE  sp
   EXCHANGE   omegaB97X-D
   BASIS   6-311+G(2df,2pd)
   UNRESTRICTED   True
   max_scf_cycles   250
   geom_opt_max_cycles   1500
   basis2 6-31G*
   scf_algorithm rca_diis
   SYM_IGNORE  TRUE
   print_input   true
   geom_opt_dmax   80
   pop_mulliken false
   XC_GRID 000075000302
$end

$molecule
0 2
N       -0.4545649093     0.8450035533     0.0000000000
O       0.7173926146     0.1954753075     0.0000000000
O       -1.6475177054     0.2350511392     0.0000000000
$end
--------------------------------------------------------------

             Standard Nuclear Orientation (Angstroms)
    I     Atom           X                Y                Z
 ----------------------------------------------------------------
    1      N      -0.4545649093     0.8450035533     0.0000000000
    2      O       0.7173926146     0.1954753075     0.0000000000
    3      O      -1.6475177054     0.2350511392     0.0000000000
 ----------------------------------------------------------------

    9    -204.9488137387      3.23E-05 Convergence criterion met
    9    -205.0229889147      5.50E-06 Convergence criterion met
 Total energy in the final basis set = -205.02298891

                    Orbital Energies (a.u.)
 --------------------------------------------------------------

 Alpha MOs
 -- Occupied --
-19.3888 -19.3887 -14.7079  -1.3037  -1.1750  -0.8231  -0.6581  -0.6302
 -0.6116  -0.4734  -0.4637  -0.4399

 Beta MOs
 -- Occupied --
-19.3795 -19.3795 -14.7006  -1.2831  -1.1483  -0.7867  -0.6259  -0.6014
 -0.5893  -0.4527  -0.4239

                    Cartesian Multipole Moments
 -----------------------------------------------------------------
    Charge (ESU x 10^10)
                 0.0000
    Dipole Moment (Debye)
         X       0.0084      Y       0.4128      Z       0.0000
       Tot       0.4129
    Quadrupole Moments (Debye-Ang)
        XX     -17.9555     XY      -0.1493     YY     -15.3155
        XZ      -0.0000     YZ       0.0000     ZZ     -15.4147

 Total job time:  7.12s(wall), 33.31s(cpu)
        *  Thank you very much for using Q-Chem.  Have a nice day.  *
