 Q-Chem 5.3 (devel), Q-Chem, Inc., Pleasanton, CA (2020)
 Q-Chem 5.3.0 for Intel X86 EM64T Linux

User input:
--------------------------------------------------------------
$rem
   JOBTYPE  sp
   EXCHANGE   omegaB97X-D
   BASIS   6-311+G(2df,2pd)
   UNRESTRICTED   True
   max_scf_cycles   250
   geom_opt_max_cycles   1500
   basis2 6-31G*
   scf_algorithm rca_diis
   SYM_IGNORE  TRUE
   print_input   true
   geom_opt_dmax   80
   pop_mulliken false
   XC_GRID 000075000302
$end

$molecule
0 2
N       -0.4574799653     0.6679402857     0.0000000000
O       0.5637104399     0.2866126654     0.0000000000
O       -1.4909204747     0.3209770489     0.0000000000
$end
--------------------------------------------------------------

             Standard Nuclear Orientation (Angstroms)
    I     Atom           X                Y                Z
 ----------------------------------------------------------------
    1      N      -0.4574799653     0.6679402857     0.0000000000
    2      O       0.5637104399     0.2866126654     0.0000000000
    3      O      -1.4909204747     0.3209770489     0.0000000000
 ----------------------------------------------------------------

    7    -204.9511748879      1.32E-05 Convergence criterion met
    8    -205.0426317398      2.37E-06 Convergence criterion met
 Total energy in the final basis set = -205.04263174

                    Orbital Energies (a.u.)
 --------------------------------------------------------------

 Alpha MOs
 -- Occupied --
-19.3492 -19.3492 -14.6733  -1.4819  -1.3263  -0.7635  -0.7273  -0.7244
 -0.6828  -0.4889  -0.4821  -0.3213

 Beta MOs
 -- Occupied --
-19.3418 -19.3417 -14.6632  -1.4631  -1.3062  -0.7241  -0.7150  -0.6856
 -0.6637  -0.4751  -0.4471

                    Cartesian Multipole Moments
 -----------------------------------------------------------------
    Charge (ESU x 10^10)
                 0.0000
    Dipole Moment (Debye)
         X       0.0060      Y       0.3353      Z      -0.0000
       Tot       0.3354
    Quadrupole Moments (Debye-Ang)
        XX     -17.8649     XY      -0.1135     YY     -15.2604
        XZ       0.0000     YZ      -0.0000     ZZ     -14.4731

 Total job time:  6.87s(wall), 30.85s(cpu)
        *  Thank you very much for using Q-Chem.  Have a nice day.  *
