 Q-Chem 5.3 (devel), Q-Chem, Inc., Pleasanton, CA (2020)
 Q-Chem 5.3.0 for Intel X86 EM64T Linux

User input:
--------------------------------------------------------------
$rem
   JOBTYPE  sp
   EXCHANGE   omegaB97X-D
   BASIS   6-311+G(2df,2pd)
   UNRESTRICTED   True
   max_scf_cycles   250
   geom_opt_max_cycles   1500
   basis2 6-31G*
   scf_algorithm rca_diis
   SYM_IGNORE  TRUE
   print_input   true
   geom_opt_dmax   80
   pop_mulliken false
   XC_GRID 000075000302
$end

$molecule
0 2
N       -0.4557316207     0.7741788229     0.0000000000
O       0.6662509906     0.2317569682     0.0000000000
O       -1.5952093700     0.2695942088     0.0000000000
$end
--------------------------------------------------------------

             Standard Nuclear Orientation (Angstroms)
    I     Atom           X                Y                Z
 ----------------------------------------------------------------
    1      N      -0.4557316207     0.7741788229     0.0000000000
    2      O       0.6662509906     0.2317569682     0.0000000000
    3      O      -1.5952093700     0.2695942088     0.0000000000
 ----------------------------------------------------------------

    9    -204.9919669592      6.87E-06 Convergence criterion met
    7    -205.0686363576      9.13E-06 Convergence criterion met
 Total energy in the final basis set = -205.06863636

                    Orbital Energies (a.u.)
 --------------------------------------------------------------

 Alpha MOs
 -- Occupied --
-19.3767 -19.3765 -14.6991  -1.3640  -1.2200  -0.7981  -0.6703  -0.6623
 -0.6486  -0.4775  -0.4686  -0.4064

 Beta MOs
 -- Occupied --
-19.3683 -19.3682 -14.6900  -1.3439  -1.1963  -0.7618  -0.6427  -0.6370
 -0.6169  -0.4599  -0.4320

                    Cartesian Multipole Moments
 -----------------------------------------------------------------
    Charge (ESU x 10^10)
                -0.0000
    Dipole Moment (Debye)
         X       0.0048      Y       0.3916      Z      -0.0000
       Tot       0.3916
    Quadrupole Moments (Debye-Ang)
        XX     -17.9557     XY      -0.1399     YY     -15.3221
        XZ       0.0000     YZ      -0.0000     ZZ     -15.0689

 Total job time:  9.54s(wall), 37.29s(cpu)
        *  Thank you very much for using Q-Chem.  Have a nice day.  *
