 Q-Chem 5.3 (devel), Q-Chem, Inc., Pleasanton, CA (2020)
 Q-Chem 5.3.0 for Intel X86 EM64T Linux

User input:
--------------------------------------------------------------
$rem
   JOBTYPE  sp
   EXCHANGE   omegaB97X-D
   BASIS   6-311+G(2df,2pd)
   UNRESTRICTED   True
   max_scf_cycles   250
   geom_opt_max_cycles   1500
   basis2 6-31G*
   scf_algorithm rca_diis
   SYM_IGNORE  TRUE
   print_input   true
   geom_opt_dmax   80
   pop_mulliken false
   XC_GRID 000075000302
$end

$molecule
0 2
N       -0.4543220085     0.8556683658     0.0000000000
O       0.5120625756     0.1935893772     0.0000000000
O       -1.4424305672     0.2262722570     0.0000000000
$end
--------------------------------------------------------------

             Standard Nuclear Orientation (Angstroms)
    I     Atom           X                Y                Z
 ----------------------------------------------------------------
    1      N      -0.4543220085     0.8556683658     0.0000000000
    2      O       0.5120625756     0.1935893772     0.0000000000
    3      O      -1.4424305672     0.2262722570     0.0000000000
 ----------------------------------------------------------------

    7    -204.9623508604      9.86E-05 Convergence criterion met
    7    -205.0433887467      7.37E-06 Convergence criterion met
 Total energy in the final basis set = -205.04338875

                    Orbital Energies (a.u.)
 --------------------------------------------------------------

 Alpha MOs
 -- Occupied --
-19.3498 -19.3497 -14.6890  -1.4407  -1.2295  -0.7874  -0.6885  -0.6848
 -0.6679  -0.4598  -0.4437  -0.4275

 Beta MOs
 -- Occupied --
-19.3416 -19.3416 -14.6807  -1.4226  -1.2050  -0.7447  -0.6740  -0.6496
 -0.6426  -0.4508  -0.3984

                    Cartesian Multipole Moments
 -----------------------------------------------------------------
    Charge (ESU x 10^10)
                 0.0000
    Dipole Moment (Debye)
         X       0.0114      Y       0.7063      Z      -0.0000
       Tot       0.7064
    Quadrupole Moments (Debye-Ang)
        XX     -18.1895     XY      -0.2699     YY     -14.5340
        XZ       0.0000     YZ      -0.0000     ZZ     -14.7598

 Total job time:  6.99s(wall), 32.51s(cpu)
        *  Thank you very much for using Q-Chem.  Have a nice day.  *
