 Q-Chem 5.3 (devel), Q-Chem, Inc., Pleasanton, CA (2020)
 Q-Chem 5.3.0 for Intel X86 EM64T Linux

User input:
--------------------------------------------------------------
$rem
   JOBTYPE  sp
   EXCHANGE   omegaB97X-D
   BASIS   6-311+G(2df,2pd)
   UNRESTRICTED   True
   max_scf_cycles   250
   geom_opt_max_cycles   1500
   basis2 6-31G*
   scf_algorithm rca_diis
   SYM_IGNORE  TRUE
   print_input   true
   geom_opt_dmax   80
   pop_mulliken false
   XC_GRID 000075000302
$end

$molecule
0 2
N       -0.4577981833     0.6485799627     0.0000000000
O       0.5408477148     0.2966791914     0.0000000000
O       -1.4677395317     0.3302708459     0.0000000000
$end
--------------------------------------------------------------

             Standard Nuclear Orientation (Angstroms)
    I     Atom           X                Y                Z
 ----------------------------------------------------------------
    1      N      -0.4577981833     0.6485799627     0.0000000000
    2      O       0.5408477148     0.2966791914     0.0000000000
    3      O      -1.4677395317     0.3302708459     0.0000000000
 ----------------------------------------------------------------

    6    -204.9104490697      4.72E-05 Convergence criterion met
    8    -205.0081434458      3.90E-06 Convergence criterion met
 Total energy in the final basis set = -205.00814345

                    Orbital Energies (a.u.)
 --------------------------------------------------------------

 Alpha MOs
 -- Occupied --
-19.3437 -19.3437 -14.6675  -1.5081  -1.3529  -0.7683  -0.7470  -0.7302
 -0.6852  -0.4925  -0.4862  -0.2991

 Beta MOs
 -- Occupied --
-19.3365 -19.3364 -14.6575  -1.4897  -1.3335  -0.7348  -0.7181  -0.7042
 -0.6677  -0.4794  -0.4514

                    Cartesian Multipole Moments
 -----------------------------------------------------------------
    Charge (ESU x 10^10)
                 0.0000
    Dipole Moment (Debye)
         X       0.0060      Y       0.3220      Z       0.0000
       Tot       0.3221
    Quadrupole Moments (Debye-Ang)
        XX     -17.8042     XY      -0.1084     YY     -15.2739
        XZ       0.0000     YZ       0.0000     ZZ     -14.3813

 Total job time:  7.72s(wall), 32.86s(cpu)
        *  Thank you very much for using Q-Chem.  Have a nice day.  *
