 Q-Chem 5.3 (devel), Q-Chem, Inc., Pleasanton, CA (2020)
 Q-Chem 5.3.0 for Intel X86 EM64T Linux

User input:
--------------------------------------------------------------
$rem
   JOBTYPE  sp
   EXCHANGE   omegaB97X-D
   BASIS   6-311+G(2df,2pd)
   UNRESTRICTED   True
   max_scf_cycles   250
   geom_opt_max_cycles   1500
   basis2 6-31G*
   scf_algorithm rca_diis
   SYM_IGNORE  TRUE
   print_input   true
   geom_opt_dmax   80
   pop_mulliken false
   XC_GRID 000075000302
$end

$molecule
0 2
N       -0.4582160246     0.6263734014     0.0000000000
O       0.6907625828     0.3052684276     0.0000000000
O       -1.6172365583     0.3438881710     0.0000000000
$end
--------------------------------------------------------------

             Standard Nuclear Orientation (Angstroms)
    I     Atom           X                Y                Z
 ----------------------------------------------------------------
    1      N      -0.4582160246     0.6263734014     0.0000000000
    2      O       0.6907625828     0.3052684276     0.0000000000
    3      O      -1.6172365583     0.3438881710     0.0000000000
 ----------------------------------------------------------------

    7    -204.9863698884      4.85E-05 Convergence criterion met
    9    -205.0662799634      3.26E-06 Convergence criterion met
 Total energy in the final basis set = -205.06627996

                    Orbital Energies (a.u.)
 --------------------------------------------------------------

 Alpha MOs
 -- Occupied --
-19.3739 -19.3738 -14.6881  -1.3913  -1.2663  -0.7794  -0.6845  -0.6765
 -0.6717  -0.4952  -0.4771  -0.3371

 Beta MOs
 -- Occupied --
-19.3663 -19.3662 -14.6768  -1.3701  -1.2461  -0.7487  -0.6588  -0.6553
 -0.6329  -0.4704  -0.4502

                    Cartesian Multipole Moments
 -----------------------------------------------------------------
    Charge (ESU x 10^10)
                -0.0000
    Dipole Moment (Debye)
         X       0.0020      Y       0.1377      Z       0.0000
       Tot       0.1377
    Quadrupole Moments (Debye-Ang)
        XX     -17.9210     XY      -0.0275     YY     -15.6959
        XZ       0.0000     YZ      -0.0000     ZZ     -14.8715

 Total job time:  8.22s(wall), 37.16s(cpu)
        *  Thank you very much for using Q-Chem.  Have a nice day.  *
