 Q-Chem 5.3 (devel), Q-Chem, Inc., Pleasanton, CA (2020)
 Q-Chem 5.3.0 for Intel X86 EM64T Linux

User input:
--------------------------------------------------------------
$rem
   JOBTYPE  sp
   EXCHANGE   omegaB97X-D
   BASIS   6-311+G(2df,2pd)
   UNRESTRICTED   True
   max_scf_cycles   250
   geom_opt_max_cycles   1500
   basis2 6-31G*
   scf_algorithm rca_diis
   SYM_IGNORE  TRUE
   print_input   true
   geom_opt_dmax   80
   pop_mulliken false
   XC_GRID 000075000302
$end

$molecule
0 2
N       -0.5423909106     0.7289989652     0.0000000000
O       0.6712751153     0.2369649431     0.0000000000
O       -1.5135742048     0.3095660918     0.0000000000
$end
--------------------------------------------------------------

             Standard Nuclear Orientation (Angstroms)
    I     Atom           X                Y                Z
 ----------------------------------------------------------------
    1      N      -0.5423909106     0.7289989652     0.0000000000
    2      O       0.6712751153     0.2369649431     0.0000000000
    3      O      -1.5135742048     0.3095660918     0.0000000000
 ----------------------------------------------------------------

    9    -204.9549579616      2.98E-05 Convergence criterion met
   10    -205.0413086656      5.46E-06 Convergence criterion met
 Total energy in the final basis set = -205.04130867

                    Orbital Energies (a.u.)
 --------------------------------------------------------------

 Alpha MOs
 -- Occupied --
-19.3993 -19.3300 -14.6847  -1.4856  -1.1997  -0.7864  -0.7171  -0.7100
 -0.6796  -0.4602  -0.4538  -0.3705

 Beta MOs
 -- Occupied --
-19.3925 -19.3203 -14.6757  -1.4697  -1.1730  -0.7557  -0.6999  -0.6749
 -0.6464  -0.4434  -0.4209

                    Cartesian Multipole Moments
 -----------------------------------------------------------------
    Charge (ESU x 10^10)
                -0.0000
    Dipole Moment (Debye)
         X      -1.4505      Y       0.3612      Z       0.0000
       Tot       1.4948
    Quadrupole Moments (Debye-Ang)
        XX     -16.5304     XY      -0.9479     YY     -15.3006
        XZ      -0.0000     YZ       0.0000     ZZ     -14.8403

 Total job time:  7.46s(wall), 35.32s(cpu)
        *  Thank you very much for using Q-Chem.  Have a nice day.  *
