 Q-Chem 5.3 (devel), Q-Chem, Inc., Pleasanton, CA (2020)
 Q-Chem 5.3.0 for Intel X86 EM64T Linux

User input:
--------------------------------------------------------------
$rem
   JOBTYPE  sp
   EXCHANGE   omegaB97X-D
   BASIS   6-311+G(2df,2pd)
   UNRESTRICTED   True
   max_scf_cycles   250
   geom_opt_max_cycles   1500
   basis2 6-31G*
   scf_algorithm rca_diis
   SYM_IGNORE  TRUE
   print_input   true
   geom_opt_dmax   80
   pop_mulliken false
   XC_GRID 000075000302
$end

$molecule
0 2
N       -0.4559030889     0.7627392070     0.0000000000
O       0.6020330953     0.2385567158     0.0000000000
O       -1.5308200065     0.2742340772     0.0000000000
$end
--------------------------------------------------------------

             Standard Nuclear Orientation (Angstroms)
    I     Atom           X                Y                Z
 ----------------------------------------------------------------
    1      N      -0.4559030889     0.7627392070     0.0000000000
    2      O       0.6020330953     0.2385567158     0.0000000000
    3      O      -1.5308200065     0.2742340772     0.0000000000
 ----------------------------------------------------------------

    7    -204.9976423856      6.55E-05 Convergence criterion met
    8    -205.0780332678      6.74E-06 Convergence criterion met
 Total energy in the final basis set = -205.07803327

                    Orbital Energies (a.u.)
 --------------------------------------------------------------

 Alpha MOs
 -- Occupied --
-19.3630 -19.3629 -14.6901  -1.4154  -1.2524  -0.7819  -0.6874  -0.6787
 -0.6749  -0.4743  -0.4706  -0.3900

 Beta MOs
 -- Occupied --
-19.3550 -19.3549 -14.6807  -1.3962  -1.2297  -0.7449  -0.6669  -0.6501
 -0.6427  -0.4625  -0.4304

                    Cartesian Multipole Moments
 -----------------------------------------------------------------
    Charge (ESU x 10^10)
                 0.0000
    Dipole Moment (Debye)
         X       0.0075      Y       0.4559      Z       0.0000
       Tot       0.4559
    Quadrupole Moments (Debye-Ang)
        XX     -17.9859     XY      -0.1658     YY     -15.1231
        XZ       0.0000     YZ       0.0000     ZZ     -14.8064

 Total job time:  7.60s(wall), 32.79s(cpu)
        *  Thank you very much for using Q-Chem.  Have a nice day.  *
