 Q-Chem 5.3 (devel), Q-Chem, Inc., Pleasanton, CA (2020)
 Q-Chem 5.3.0 for Intel X86 EM64T Linux

User input:
--------------------------------------------------------------
$rem
   JOBTYPE  sp
   EXCHANGE   omegaB97X-D
   BASIS   6-311+G(2df,2pd)
   UNRESTRICTED   True
   max_scf_cycles   250
   geom_opt_max_cycles   1500
   basis2 6-31G*
   scf_algorithm rca_diis
   SYM_IGNORE  TRUE
   print_input   true
   geom_opt_dmax   80
   pop_mulliken false
   XC_GRID 000075000302
$end

$molecule
0 2
N       -0.4606954987     0.4800024313     0.0000000000
O       0.7402833541     0.3776402547     0.0000000000
O       -1.6642778555     0.4178873140     0.0000000000
$end
--------------------------------------------------------------

             Standard Nuclear Orientation (Angstroms)
    I     Atom           X                Y                Z
 ----------------------------------------------------------------
    1      N      -0.4606954987     0.4800024313     0.0000000000
    2      O       0.7402833541     0.3776402547     0.0000000000
    3      O      -1.6642778555     0.4178873140     0.0000000000
 ----------------------------------------------------------------

    7    -204.9471155506      5.26E-05 Convergence criterion met
   10    -205.0254291695      1.94E-06 Convergence criterion met
 Total energy in the final basis set = -205.02542917

                    Orbital Energies (a.u.)
 --------------------------------------------------------------

 Alpha MOs
 -- Occupied --
-19.3782 -19.3781 -14.6694  -1.3699  -1.2615  -0.7756  -0.6799  -0.6675
 -0.6609  -0.5049  -0.4759  -0.2863

 Beta MOs
 -- Occupied --
-19.3715 -19.3715 -14.6552  -1.3471  -1.2464  -0.7474  -0.6533  -0.6478
 -0.6192  -0.4709  -0.4504

                    Cartesian Multipole Moments
 -----------------------------------------------------------------
    Charge (ESU x 10^10)
                -0.0000
    Dipole Moment (Debye)
         X      -0.0014      Y      -0.0416      Z      -0.0000
       Tot       0.0417
    Quadrupole Moments (Debye-Ang)
        XX     -18.0823     XY       0.0583     YY     -15.7478
        XZ       0.0000     YZ       0.0000     ZZ     -14.7957

 Total job time:  8.16s(wall), 35.96s(cpu)
        *  Thank you very much for using Q-Chem.  Have a nice day.  *
