 Q-Chem 5.3 (devel), Q-Chem, Inc., Pleasanton, CA (2020)
 Q-Chem 5.3.0 for Intel X86 EM64T Linux

User input:
--------------------------------------------------------------
$rem
   JOBTYPE  sp
   EXCHANGE   omegaB97X-D
   BASIS   6-311+G(2df,2pd)
   UNRESTRICTED   True
   max_scf_cycles   250
   geom_opt_max_cycles   1500
   basis2 6-31G*
   scf_algorithm rca_diis
   SYM_IGNORE  TRUE
   print_input   true
   geom_opt_dmax   80
   pop_mulliken false
   XC_GRID 000075000302
$end

$molecule
0 2
N       -0.4594398588     0.5541323497     0.0000000000
O       0.7206181113     0.3408967491     0.0000000000
O       -1.6458682526     0.3805009012     0.0000000000
$end
--------------------------------------------------------------

             Standard Nuclear Orientation (Angstroms)
    I     Atom           X                Y                Z
 ----------------------------------------------------------------
    1      N      -0.4594398588     0.5541323497     0.0000000000
    2      O       0.7206181113     0.3408967491     0.0000000000
    3      O      -1.6458682526     0.3805009012     0.0000000000
 ----------------------------------------------------------------

    7    -204.9669369034      4.97E-05 Convergence criterion met
    9    -205.0463725274      5.76E-06 Convergence criterion met
 Total energy in the final basis set = -205.04637253

                    Orbital Energies (a.u.)
 --------------------------------------------------------------

 Alpha MOs
 -- Occupied --
-19.3770 -19.3769 -14.6817  -1.3807  -1.2664  -0.7781  -0.6824  -0.6737
 -0.6671  -0.5008  -0.4776  -0.3094

 Beta MOs
 -- Occupied --
-19.3698 -19.3697 -14.6692  -1.3586  -1.2482  -0.7495  -0.6555  -0.6540
 -0.6269  -0.4717  -0.4528

                    Cartesian Multipole Moments
 -----------------------------------------------------------------
    Charge (ESU x 10^10)
                -0.0000
    Dipole Moment (Debye)
         X      -0.0004      Y       0.0106      Z      -0.0000
       Tot       0.0107
    Quadrupole Moments (Debye-Ang)
        XX     -17.9705     XY       0.0308     YY     -15.8173
        XZ       0.0000     YZ      -0.0000     ZZ     -14.8719

 Total job time:  7.44s(wall), 33.95s(cpu)
        *  Thank you very much for using Q-Chem.  Have a nice day.  *
