 Q-Chem 5.3 (devel), Q-Chem, Inc., Pleasanton, CA (2020)
 Q-Chem 5.3.0 for Intel X86 EM64T Linux

User input:
--------------------------------------------------------------
$rem
   JOBTYPE  sp
   EXCHANGE   omegaB97X-D
   BASIS   6-311+G(2df,2pd)
   UNRESTRICTED   True
   max_scf_cycles   250
   geom_opt_max_cycles   1500
   basis2 6-31G*
   scf_algorithm rca_diis
   SYM_IGNORE  TRUE
   print_input   true
   geom_opt_dmax   80
   pop_mulliken false
   XC_GRID 000075000302
$end

$molecule
0 2
N       -0.4588233333     0.5905283145     0.0000000000
O       0.7069431959     0.3229238696     0.0000000000
O       -1.6328098627     0.3620778159     0.0000000000
$end
--------------------------------------------------------------

             Standard Nuclear Orientation (Angstroms)
    I     Atom           X                Y                Z
 ----------------------------------------------------------------
    1      N      -0.4588233333     0.5905283145     0.0000000000
    2      O       0.7069431959     0.3229238696     0.0000000000
    3      O      -1.6328098627     0.3620778159     0.0000000000
 ----------------------------------------------------------------

    7    -204.9772953081      4.84E-05 Convergence criterion met
    9    -205.0570213574      4.15E-06 Convergence criterion met
 Total energy in the final basis set = -205.05702136

                    Orbital Energies (a.u.)
 --------------------------------------------------------------

 Alpha MOs
 -- Occupied --
-19.3756 -19.3756 -14.6856  -1.3860  -1.2669  -0.7788  -0.6835  -0.6755
 -0.6696  -0.4983  -0.4776  -0.3232

 Beta MOs
 -- Occupied --
-19.3682 -19.3681 -14.6737  -1.3643  -1.2477  -0.7493  -0.6565  -0.6557
 -0.6301  -0.4713  -0.4521

                    Cartesian Multipole Moments
 -----------------------------------------------------------------
    Charge (ESU x 10^10)
                -0.0000
    Dipole Moment (Debye)
         X       0.0007      Y       0.0688      Z      -0.0000
       Tot       0.0688
    Quadrupole Moments (Debye-Ang)
        XX     -17.9376     XY       0.0037     YY     -15.7761
        XZ       0.0000     YZ      -0.0000     ZZ     -14.8781

 Total job time:  8.16s(wall), 34.21s(cpu)
        *  Thank you very much for using Q-Chem.  Have a nice day.  *
