 Q-Chem 5.2 (devel), Q-Chem, Inc., Pleasanton, CA (2019)
 Q-Chem 5.2.2 for Intel X86 EM64T Linux

User input:
--------------------------------------------------------------
$rem
   JOBTYPE  sp
   EXCHANGE   omegaB97X-D
   BASIS   6-311+G(2df,2pd)
   max_scf_cycles   250
   geom_opt_max_cycles   1500
   basis2 6-31G*
   scf_algorithm rca_diis
   SYM_IGNORE  TRUE
   print_input   true
   geom_opt_dmax   80
   pop_mulliken false
   XC_GRID 000075000302
$end

$molecule
0 1
C       1.0812809131     0.6606845597     0.2590845458
C       0.0000042350     -0.0000151924     -0.5876979927
H       1.5991536929     1.4719456404     -0.2650780075
H       1.8259565629     -0.0869172284     0.5234096860
H       0.6749061227     1.0607989042     1.1885465486
C       -1.0812838701     -0.6606746398     0.2591010773
H       0.3428424917     -0.8053831235     -1.2416112677
H       -0.3428236749     0.8053208272     -1.2416548249
H       -1.8259001889     0.0869695905     0.5234772118
H       -0.6749068930     -1.0608435109     1.1885385613
H       -1.5992294521     -1.4718851610     -0.2650705191
--------------------------------------------------------------

             Standard Nuclear Orientation (Angstroms)
    I     Atom           X                Y                Z
 ----------------------------------------------------------------
    1      C       1.0812809131     0.6606845597     0.2590845458
    2      C       0.0000042350    -0.0000151924    -0.5876979927
    3      H       1.5991536929     1.4719456404    -0.2650780075
    4      H       1.8259565629    -0.0869172284     0.5234096860
    5      H       0.6749061227     1.0607989042     1.1885465486
    6      C      -1.0812838701    -0.6606746398     0.2591010773
    7      H       0.3428424917    -0.8053831235    -1.2416112677
    8      H      -0.3428236749     0.8053208272    -1.2416548249
    9      H      -1.8259001889     0.0869695905     0.5234772118
   10      H      -0.6749068930    -1.0608435109     1.1885385613
   11      H      -1.5992294521    -1.4718851610    -0.2650705191
 ----------------------------------------------------------------

    7    -119.0942549748      4.56E-06 Convergence criterion met
    6    -119.1375040049      4.01E-06 Convergence criterion met
 Total energy in the final basis set = -119.13750400

                    Orbital Energies (a.u.)
 --------------------------------------------------------------

 Alpha MOs
 -- Occupied --
-10.2727 -10.2651 -10.2651  -0.8817  -0.7774  -0.6777  -0.5458  -0.5259
 -0.4821  -0.4673  -0.4233  -0.4173  -0.3943

                    Cartesian Multipole Moments
 -----------------------------------------------------------------
    Charge (ESU x 10^10)
                -0.0000
    Dipole Moment (Debye)
         X       0.0000      Y      -0.0000      Z      -0.0576
       Tot       0.0576
    Quadrupole Moments (Debye-Ang)
        XX     -22.2941     XY      -0.1749     YY     -21.2592
        XZ      -0.0000     YZ      -0.0000     ZZ     -21.8749

 Total job time:  40.92s(wall), 113.72s(cpu)
        *  Thank you very much for using Q-Chem.  Have a nice day.  *
