 Q-Chem 5.2 (devel), Q-Chem, Inc., Pleasanton, CA (2019)
 Q-Chem 5.2.2 for Intel X86 EM64T Linux

User input:
--------------------------------------------------------------
$rem
   JOBTYPE  sp
   EXCHANGE   omegaB97X-D
   BASIS   6-311+G(2df,2pd)
   max_scf_cycles   250
   geom_opt_max_cycles   1500
   basis2 6-31G*
   scf_algorithm rca_diis
   SYM_IGNORE  TRUE
   print_input   true
   geom_opt_dmax   80
   pop_mulliken false
   XC_GRID 000075000302
$end

$molecule
0 1
C       1.2762308376     0.0000001724     0.1344202004
C       -0.0000001214     -0.0000002829     -0.5174047361
H       1.0616729130     -0.8057551426     0.8446304538
H       1.0616734830     0.8057554802     0.8446305980
H       2.3027492613     -0.0000002745     -0.2099831461
C       -1.2762307172     0.0000001625     0.1344198803
H       0.0000003417     -0.8628837935     -1.1844733456
H       -0.0000002180     0.8628836051     -1.1844728560
H       -1.0616730692     -0.8057551773     0.8446301864
H       -2.3027494836     0.0000006520     -0.2099827793
H       -1.0616732877     0.8057552646     0.8446305631
--------------------------------------------------------------

             Standard Nuclear Orientation (Angstroms)
    I     Atom           X                Y                Z
 ----------------------------------------------------------------
    1      C       1.2762308376     0.0000001724     0.1344202004
    2      C      -0.0000001214    -0.0000002829    -0.5174047361
    3      H       1.0616729130    -0.8057551426     0.8446304538
    4      H       1.0616734830     0.8057554802     0.8446305980
    5      H       2.3027492613    -0.0000002745    -0.2099831461
    6      C      -1.2762307172     0.0000001625     0.1344198803
    7      H       0.0000003417    -0.8628837935    -1.1844733456
    8      H      -0.0000002180     0.8628836051    -1.1844728560
    9      H      -1.0616730692    -0.8057551773     0.8446301864
   10      H      -2.3027494836     0.0000006520    -0.2099827793
   11      H      -1.0616732877     0.8057552646     0.8446305631
 ----------------------------------------------------------------

    7    -119.0262513872      4.51E-06 Convergence criterion met
    6    -119.0731386447      4.23E-06 Convergence criterion met
 Total energy in the final basis set = -119.07313864

                    Orbital Energies (a.u.)
 --------------------------------------------------------------

 Alpha MOs
 -- Occupied --
-10.2666 -10.2666 -10.2645  -0.9211  -0.7961  -0.6750  -0.5652  -0.5643
 -0.4952  -0.4750  -0.4419  -0.3774  -0.3743

                    Cartesian Multipole Moments
 -----------------------------------------------------------------
    Charge (ESU x 10^10)
                 0.0000
    Dipole Moment (Debye)
         X      -0.0000      Y       0.0000      Z      -0.0094
       Tot       0.0094
    Quadrupole Moments (Debye-Ang)
        XX     -20.2661     XY      -0.0000     YY     -22.3091
        XZ      -0.0000     YZ       0.0000     ZZ     -23.0743

 Total job time:  35.22s(wall), 98.72s(cpu)
        *  Thank you very much for using Q-Chem.  Have a nice day.  *
