 Q-Chem 5.2 (devel), Q-Chem, Inc., Pleasanton, CA (2019)
 Q-Chem 5.2.2 for Intel X86 EM64T Linux

User input:
--------------------------------------------------------------
$rem
   JOBTYPE  sp
   EXCHANGE   omegaB97X-D
   BASIS   6-311+G(2df,2pd)
   max_scf_cycles   250
   geom_opt_max_cycles   1500
   basis2 6-31G*
   scf_algorithm rca_diis
   SYM_IGNORE  TRUE
   print_input   true
   geom_opt_dmax   80
   pop_mulliken false
   XC_GRID 000075000302
$end

$molecule
0 1
C       1.2668414560     -0.0000023984     0.2590900916
C       0.0000013161     -0.0000006573     -0.5700432089
H       1.2741657688     -0.7954035556     1.0105473338
H       1.2741739092     0.7954010044     1.0105453733
H       2.1167195496     0.0000069932     -0.4158515452
C       -1.2668392848     0.0000016521     0.2590918881
H       -0.0000012321     -0.7113998308     -1.4087824976
H       -0.0000012934     0.7113989755     -1.4087820590
H       -1.2741720815     -0.7954118421     1.0105360451
H       -2.1167227580     -0.0000034868     -0.4158436841
H       -1.2741654106     0.7954138118     1.0105372818
--------------------------------------------------------------

             Standard Nuclear Orientation (Angstroms)
    I     Atom           X                Y                Z
 ----------------------------------------------------------------
    1      C       1.2668414560    -0.0000023984     0.2590900916
    2      C       0.0000013161    -0.0000006573    -0.5700432089
    3      H       1.2741657688    -0.7954035556     1.0105473338
    4      H       1.2741739092     0.7954010044     1.0105453733
    5      H       2.1167195496     0.0000069932    -0.4158515452
    6      C      -1.2668392848     0.0000016521     0.2590918881
    7      H      -0.0000012321    -0.7113998308    -1.4087824976
    8      H      -0.0000012934     0.7113989755    -1.4087820590
    9      H      -1.2741720815    -0.7954118421     1.0105360451
   10      H      -2.1167227580    -0.0000034868    -0.4158436841
   11      H      -1.2741654106     0.7954138118     1.0105372818
 ----------------------------------------------------------------

    7    -119.0694271210      6.21E-06 Convergence criterion met
    6    -119.1144185377      4.29E-06 Convergence criterion met
 Total energy in the final basis set = -119.11441854

                    Orbital Energies (a.u.)
 --------------------------------------------------------------

 Alpha MOs
 -- Occupied --
-10.2747 -10.2676 -10.2676  -0.8837  -0.7797  -0.6973  -0.5364  -0.5136
 -0.5111  -0.4625  -0.4361  -0.4167  -0.3664

                    Cartesian Multipole Moments
 -----------------------------------------------------------------
    Charge (ESU x 10^10)
                 0.0000
    Dipole Moment (Debye)
         X      -0.0000      Y       0.0000      Z      -0.1014
       Tot       0.1014
    Quadrupole Moments (Debye-Ang)
        XX     -22.3360     XY       0.0000     YY     -23.1026
        XZ       0.0000     YZ      -0.0000     ZZ     -19.9431

 Total job time:  34.93s(wall), 97.49s(cpu)
        *  Thank you very much for using Q-Chem.  Have a nice day.  *
