 Q-Chem 5.2 (devel), Q-Chem, Inc., Pleasanton, CA (2019)
 Q-Chem 5.2.2 for Intel X86 EM64T Linux

User input:
--------------------------------------------------------------
$rem
   JOBTYPE  sp
   EXCHANGE   omegaB97X-D
   BASIS   6-311+G(2df,2pd)
   max_scf_cycles   250
   geom_opt_max_cycles   1500
   basis2 6-31G*
   scf_algorithm rca_diis
   SYM_IGNORE  TRUE
   print_input   true
   geom_opt_dmax   80
   pop_mulliken false
   XC_GRID 000075000302
$end

$molecule
0 1
C       1.2625405990     -0.1963987778     0.1197469615
C       -0.0000017165     0.5844079252     -0.2252901346
H       1.4119398866     -0.0213864125     1.1901827356
H       2.1795978335     0.0879900877     -0.3938194587
H       1.1178497870     -1.2686148501     -0.0165008275
C       -1.2625404253     -0.1964065457     0.1197441446
H       -0.0000007573     0.5795735688     -1.3172201844
H       -0.0000055239     1.6328858501     0.0843584701
H       -1.4119151521     -0.0214484870     1.1901916841
H       -1.1178579410     -1.2686167076     -0.0165610166
H       -2.1796066507     0.0880150149     -0.3937873551
--------------------------------------------------------------

             Standard Nuclear Orientation (Angstroms)
    I     Atom           X                Y                Z
 ----------------------------------------------------------------
    1      C       1.2625405990    -0.1963987778     0.1197469615
    2      C      -0.0000017165     0.5844079252    -0.2252901346
    3      H       1.4119398866    -0.0213864125     1.1901827356
    4      H       2.1795978335     0.0879900877    -0.3938194587
    5      H       1.1178497870    -1.2686148501    -0.0165008275
    6      C      -1.2625404253    -0.1964065457     0.1197441446
    7      H      -0.0000007573     0.5795735688    -1.3172201844
    8      H      -0.0000055239     1.6328858501     0.0843584701
    9      H      -1.4119151521    -0.0214484870     1.1901916841
   10      H      -1.1178579410    -1.2686167076    -0.0165610166
   11      H      -2.1796066507     0.0880150149    -0.3937873551
 ----------------------------------------------------------------

    7    -119.0912937900      4.76E-06 Convergence criterion met
    6    -119.1346611093      4.17E-06 Convergence criterion met
 Total energy in the final basis set = -119.13466111

                    Orbital Energies (a.u.)
 --------------------------------------------------------------

 Alpha MOs
 -- Occupied --
-10.2737 -10.2658 -10.2658  -0.8836  -0.7766  -0.6783  -0.5479  -0.5291
 -0.4758  -0.4655  -0.4304  -0.4228  -0.3860

                    Cartesian Multipole Moments
 -----------------------------------------------------------------
    Charge (ESU x 10^10)
                -0.0000
    Dipole Moment (Debye)
         X      -0.0000      Y       0.0372      Z      -0.0706
       Tot       0.0798
    Quadrupole Moments (Debye-Ang)
        XX     -22.0233     XY      -0.0000     YY     -21.4567
        XZ      -0.0000     YZ       0.4987     ZZ     -21.9593

 Total job time:  41.78s(wall), 114.23s(cpu)
        *  Thank you very much for using Q-Chem.  Have a nice day.  *
