 Q-Chem 5.2 (devel), Q-Chem, Inc., Pleasanton, CA (2019)
 Q-Chem 5.2.2 for Intel X86 EM64T Linux

User input:
--------------------------------------------------------------
$rem
   JOBTYPE  sp
   EXCHANGE   omegaB97X-D
   BASIS   6-311+G(2df,2pd)
   max_scf_cycles   250
   geom_opt_max_cycles   1500
   basis2 6-31G*
   scf_algorithm rca_diis
   SYM_IGNORE  TRUE
   print_input   true
   geom_opt_dmax   80
   pop_mulliken false
   XC_GRID 000075000302
$end

$molecule
0 1
C       1.2672029167     0.0428624428     0.2596074478
C       -0.0000002556     0.0404765451     -0.5870985140
H       1.3080641432     -0.9193133483     0.9556117975
H       1.3023870161     0.8426062978     0.8513880153
H       2.1645882294     0.0337638498     -0.3598730894
C       -1.2672047097     0.0428632459     0.2596055492
H       -0.0000000658     -0.8942102753     -1.2822381581
H       0.0000000511     0.8538963190     -1.2030895717
H       -1.3080665300     -0.9193180266     0.9556142720
H       -2.1645821307     0.0337653263     -0.3598703154
H       -1.3023887252     0.8426082894     0.8513875856
--------------------------------------------------------------

             Standard Nuclear Orientation (Angstroms)
    I     Atom           X                Y                Z
 ----------------------------------------------------------------
    1      C       1.2672029167     0.0428624428     0.2596074478
    2      C      -0.0000002556     0.0404765451    -0.5870985140
    3      H       1.3080641432    -0.9193133483     0.9556117975
    4      H       1.3023870161     0.8426062978     0.8513880153
    5      H       2.1645882294     0.0337638498    -0.3598730894
    6      C      -1.2672047097     0.0428632459     0.2596055492
    7      H      -0.0000000658    -0.8942102753    -1.2822381581
    8      H       0.0000000511     0.8538963190    -1.2030895717
    9      H      -1.3080665300    -0.9193180266     0.9556142720
   10      H      -2.1645821307     0.0337653263    -0.3598703154
   11      H      -1.3023887252     0.8426082894     0.8513875856
 ----------------------------------------------------------------

    7    -119.0729493112      4.72E-06 Convergence criterion met
    5    -119.1170790564      9.97E-06 Convergence criterion met
 Total energy in the final basis set = -119.11707906

                    Orbital Energies (a.u.)
 --------------------------------------------------------------

 Alpha MOs
 -- Occupied --
-10.2744 -10.2644 -10.2644  -0.8837  -0.7806  -0.6820  -0.5470  -0.5251
 -0.4937  -0.4535  -0.4189  -0.4175  -0.4062

                    Cartesian Multipole Moments
 -----------------------------------------------------------------
    Charge (ESU x 10^10)
                 0.0000
    Dipole Moment (Debye)
         X      -0.0000      Y       0.3026      Z      -0.1030
       Tot       0.3197
    Quadrupole Moments (Debye-Ang)
        XX     -22.1542     XY      -0.0000     YY     -21.3401
        XZ       0.0000     YZ      -0.0059     ZZ     -21.8792

 Total job time:  31.96s(wall), 88.69s(cpu)
        *  Thank you very much for using Q-Chem.  Have a nice day.  *
