 Q-Chem 5.2 (devel), Q-Chem, Inc., Pleasanton, CA (2019)
 Q-Chem 5.2.2 for Intel X86 EM64T Linux

User input:
--------------------------------------------------------------
$rem
   JOBTYPE  sp
   EXCHANGE   omegaB97X-D
   BASIS   6-311+G(2df,2pd)
   max_scf_cycles   250
   geom_opt_max_cycles   1500
   basis2 6-31G*
   scf_algorithm rca_diis
   SYM_IGNORE  TRUE
   print_input   true
   geom_opt_dmax   80
   pop_mulliken false
   XC_GRID 000075000302
$end

$molecule
0 1
C       1.2591661570     -0.0000006477     0.2976700700
C       -0.0000000186     -0.0000013764     -0.5365793576
H       1.3238058631     -0.9340394798     0.8558182078
H       1.3238071395     0.9340388176     0.8558171487
H       2.1952263640     0.0000027667     -0.2665365103
C       -1.2591661617     -0.0000008874     0.2976698550
H       0.0000001602     -0.7819187909     -1.3039576439
H       0.0000001040     0.7819169984     -1.3039566399
H       -1.3238054900     -0.9340391019     0.8558190249
H       -2.1952262707     0.0000042510     -0.2665368584
H       -1.3238079074     0.9340381165     0.8558177228
--------------------------------------------------------------

             Standard Nuclear Orientation (Angstroms)
    I     Atom           X                Y                Z
 ----------------------------------------------------------------
    1      C       1.2591661570    -0.0000006477     0.2976700700
    2      C      -0.0000000186    -0.0000013764    -0.5365793576
    3      H       1.3238058631    -0.9340394798     0.8558182078
    4      H       1.3238071395     0.9340388176     0.8558171487
    5      H       2.1952263640     0.0000027667    -0.2665365103
    6      C      -1.2591661617    -0.0000008874     0.2976698550
    7      H       0.0000001602    -0.7819187909    -1.3039576439
    8      H       0.0000001040     0.7819169984    -1.3039566399
    9      H      -1.3238054900    -0.9340391019     0.8558190249
   10      H      -2.1952262707     0.0000042510    -0.2665368584
   11      H      -1.3238079074     0.9340381165     0.8558177228
 ----------------------------------------------------------------

    7    -119.0882991503      5.62E-06 Convergence criterion met
    6    -119.1321410365      3.73E-06 Convergence criterion met
 Total energy in the final basis set = -119.13214104

                    Orbital Energies (a.u.)
 --------------------------------------------------------------

 Alpha MOs
 -- Occupied --
-10.2722 -10.2658 -10.2658  -0.8837  -0.7800  -0.6831  -0.5465  -0.5317
 -0.4815  -0.4636  -0.4242  -0.4129  -0.3939

                    Cartesian Multipole Moments
 -----------------------------------------------------------------
    Charge (ESU x 10^10)
                -0.0000
    Dipole Moment (Debye)
         X       0.0000      Y       0.0000      Z      -0.2190
       Tot       0.2190
    Quadrupole Moments (Debye-Ang)
        XX     -21.6802     XY      -0.0000     YY     -21.2089
        XZ      -0.0000     YZ      -0.0000     ZZ     -22.2085

 Total job time:  34.26s(wall), 95.84s(cpu)
        *  Thank you very much for using Q-Chem.  Have a nice day.  *
