 Q-Chem 5.2 (devel), Q-Chem, Inc., Pleasanton, CA (2019)
 Q-Chem 5.2.2 for Intel X86 EM64T Linux

User input:
--------------------------------------------------------------
$rem
   JOBTYPE  sp
   EXCHANGE   omegaB97X-D
   BASIS   6-311+G(2df,2pd)
   max_scf_cycles   250
   geom_opt_max_cycles   1500
   basis2 6-31G*
   scf_algorithm rca_diis
   SYM_IGNORE  TRUE
   print_input   true
   geom_opt_dmax   80
   pop_mulliken false
   XC_GRID 000075000302
$end

$molecule
0 1
C       1.2543097443     -0.2492939903     -0.0509107466
C       -0.0000029876     0.5496544344     0.2824147012
H       2.0296175331     0.4666537651     0.2485124797
H       1.4679346094     -0.5733025160     -1.0660492603
H       1.3550800218     -1.1137815879     0.6061004293
C       -1.2543104806     -0.2492989755     -0.0509212433
H       -0.0000011691     1.2057158754     -0.5899047879
H       -0.0000082842     1.1841295609     1.1732653516
H       -2.0296311878     0.4665969644     0.2485891854
H       -1.3550254413     -1.1138416447     0.6060266567
H       -1.4679624187     -0.5732312198     -1.0660777468
--------------------------------------------------------------

             Standard Nuclear Orientation (Angstroms)
    I     Atom           X                Y                Z
 ----------------------------------------------------------------
    1      C       1.2543097443    -0.2492939903    -0.0509107466
    2      C      -0.0000029876     0.5496544344     0.2824147012
    3      H       2.0296175331     0.4666537651     0.2485124797
    4      H       1.4679346094    -0.5733025160    -1.0660492603
    5      H       1.3550800218    -1.1137815879     0.6061004293
    6      C      -1.2543104806    -0.2492989755    -0.0509212433
    7      H      -0.0000011691     1.2057158754    -0.5899047879
    8      H      -0.0000082842     1.1841295609     1.1732653516
    9      H      -2.0296311878     0.4665969644     0.2485891854
   10      H      -1.3550254413    -1.1138416447     0.6060266567
   11      H      -1.4679624187    -0.5732312198    -1.0660777468
 ----------------------------------------------------------------

    7    -119.0757055940      6.12E-06 Convergence criterion met
    5    -119.1194315388      9.15E-06 Convergence criterion met
 Total energy in the final basis set = -119.11943154

                    Orbital Energies (a.u.)
 --------------------------------------------------------------

 Alpha MOs
 -- Occupied --
-10.2761 -10.2633 -10.2632  -0.8847  -0.7784  -0.6766  -0.5473  -0.5164
 -0.5000  -0.4644  -0.4436  -0.3884  -0.3873

                    Cartesian Multipole Moments
 -----------------------------------------------------------------
    Charge (ESU x 10^10)
                -0.0000
    Dipole Moment (Debye)
         X       0.0000      Y       0.2166      Z      -0.0559
       Tot       0.2237
    Quadrupole Moments (Debye-Ang)
        XX     -22.9925     XY      -0.0000     YY     -21.6748
        XZ      -0.0000     YZ       0.5912     ZZ     -20.9658

 Total job time:  38.32s(wall), 103.78s(cpu)
        *  Thank you very much for using Q-Chem.  Have a nice day.  *
