 Q-Chem 5.2 (devel), Q-Chem, Inc., Pleasanton, CA (2019)
 Q-Chem 5.2.2 for Intel X86 EM64T Linux

User input:
--------------------------------------------------------------
$rem
   JOBTYPE  sp
   EXCHANGE   omegaB97X-D
   BASIS   6-311+G(2df,2pd)
   max_scf_cycles   250
   geom_opt_max_cycles   1500
   basis2 6-31G*
   scf_algorithm rca_diis
   SYM_IGNORE  TRUE
   print_input   true
   geom_opt_dmax   80
   pop_mulliken false
   XC_GRID 000075000302
$end

$molecule
0 1
C       1.2665390478     -0.0786123448     0.2388835678
C       -0.0000002067     0.2726282341     -0.5326277317
H       0.9827102140     -0.6195730889     1.1452244656
H       1.8415357530     0.7964130640     0.5445362329
H       1.9236559575     -0.7268077258     -0.3417807780
C       -1.2665384977     -0.0786164732     0.2388835325
H       0.0000007276     -0.3315487762     -1.4426789831
H       -0.0000020678     1.3161005626     -0.8573718055
H       -0.9827120730     -0.6195957458     1.1452138758
H       -1.9236627456     -0.7267957979     -0.3417906107
H       -1.8415261697     0.7964087579     0.5445532534
--------------------------------------------------------------

             Standard Nuclear Orientation (Angstroms)
    I     Atom           X                Y                Z
 ----------------------------------------------------------------
    1      C       1.2665390478    -0.0786123448     0.2388835678
    2      C      -0.0000002067     0.2726282341    -0.5326277317
    3      H       0.9827102140    -0.6195730889     1.1452244656
    4      H       1.8415357530     0.7964130640     0.5445362329
    5      H       1.9236559575    -0.7268077258    -0.3417807780
    6      C      -1.2665384977    -0.0786164732     0.2388835325
    7      H       0.0000007276    -0.3315487762    -1.4426789831
    8      H      -0.0000020678     1.3161005626    -0.8573718055
    9      H      -0.9827120730    -0.6195957458     1.1452138758
   10      H      -1.9236627456    -0.7267957979    -0.3417906107
   11      H      -1.8415261697     0.7964087579     0.5445532534
 ----------------------------------------------------------------

    7    -119.0904282502      4.14E-06 Convergence criterion met
    6    -119.1339532351      4.05E-06 Convergence criterion met
 Total energy in the final basis set = -119.13395324

                    Orbital Energies (a.u.)
 --------------------------------------------------------------

 Alpha MOs
 -- Occupied --
-10.2716 -10.2634 -10.2634  -0.8819  -0.7756  -0.6785  -0.5442  -0.5314
 -0.4739  -0.4674  -0.4203  -0.4158  -0.3985

                    Cartesian Multipole Moments
 -----------------------------------------------------------------
    Charge (ESU x 10^10)
                -0.0000
    Dipole Moment (Debye)
         X      -0.0000      Y       0.0131      Z      -0.0901
       Tot       0.0910
    Quadrupole Moments (Debye-Ang)
        XX     -22.3169     XY      -0.0000     YY     -21.2922
        XZ      -0.0000     YZ       0.2574     ZZ     -21.8466

 Total job time:  35.70s(wall), 99.73s(cpu)
        *  Thank you very much for using Q-Chem.  Have a nice day.  *
