 Q-Chem 5.2 (devel), Q-Chem, Inc., Pleasanton, CA (2019)
 Q-Chem 5.2.2 for Intel X86 EM64T Linux

User input:
--------------------------------------------------------------
$rem
   JOBTYPE  sp
   EXCHANGE   omegaB97X-D
   BASIS   6-311+G(2df,2pd)
   max_scf_cycles   250
   geom_opt_max_cycles   1500
   basis2 6-31G*
   scf_algorithm rca_diis
   SYM_IGNORE  TRUE
   print_input   true
   geom_opt_dmax   80
   pop_mulliken false
   XC_GRID 000075000302
$end

$molecule
0 1
C       1.4927496430     -0.0000007486     0.2663136118
C       -0.0000001660     0.0000030094     -0.1681372132
H       1.8515250815     -0.8855293202     0.7916460771
H       1.8515315878     0.8855249411     0.7916464926
H       1.9661362317     -0.0000040475     -0.7205062730
C       -1.4927500305     0.0000009478     0.2663131774
H       0.0000009921     -0.8375206570     -0.8745107216
H       -0.0000003456     0.8375302064     -0.8745065598
H       -1.8515243200     -0.8855240340     0.7916524408
H       -1.9661370962     -0.0000099065     -0.7205061643
H       -1.8515316383     0.8855302752     0.7916401512
--------------------------------------------------------------

             Standard Nuclear Orientation (Angstroms)
    I     Atom           X                Y                Z
 ----------------------------------------------------------------
    1      C       1.4927496430    -0.0000007486     0.2663136118
    2      C      -0.0000001660     0.0000030094    -0.1681372132
    3      H       1.8515250815    -0.8855293202     0.7916460771
    4      H       1.8515315878     0.8855249411     0.7916464926
    5      H       1.9661362317    -0.0000040475    -0.7205062730
    6      C      -1.4927500305     0.0000009478     0.2663131774
    7      H       0.0000009921    -0.8375206570    -0.8745107216
    8      H      -0.0000003456     0.8375302064    -0.8745065598
    9      H      -1.8515243200    -0.8855240340     0.7916524408
   10      H      -1.9661370962    -0.0000099065    -0.7205061643
   11      H      -1.8515316383     0.8855302752     0.7916401512
 ----------------------------------------------------------------

    7    -119.0627382579      4.27E-06 Convergence criterion met
    6    -119.1061999188      4.20E-06 Convergence criterion met
 Total energy in the final basis set = -119.10619992

                    Orbital Energies (a.u.)
 --------------------------------------------------------------

 Alpha MOs
 -- Occupied --
-10.2795 -10.2744 -10.2744  -0.8741  -0.7929  -0.6722  -0.5362  -0.5058
 -0.5014  -0.4764  -0.4288  -0.3972  -0.3877

                    Cartesian Multipole Moments
 -----------------------------------------------------------------
    Charge (ESU x 10^10)
                -0.0000
    Dipole Moment (Debye)
         X      -0.0000      Y      -0.0000      Z      -0.2890
       Tot       0.2890
    Quadrupole Moments (Debye-Ang)
        XX     -21.7476     XY      -0.0000     YY     -21.5235
        XZ       0.0000     YZ       0.0000     ZZ     -21.8264

 Total job time:  34.48s(wall), 96.71s(cpu)
        *  Thank you very much for using Q-Chem.  Have a nice day.  *
