 Q-Chem 5.2 (devel), Q-Chem, Inc., Pleasanton, CA (2019)
 Q-Chem 5.2.2 for Intel X86 EM64T Linux

User input:
--------------------------------------------------------------
$rem
   JOBTYPE  sp
   EXCHANGE   omegaB97X-D
   BASIS   6-311+G(2df,2pd)
   max_scf_cycles   250
   geom_opt_max_cycles   1500
   basis2 6-31G*
   scf_algorithm rca_diis
   SYM_IGNORE  TRUE
   print_input   true
   geom_opt_dmax   80
   pop_mulliken false
   XC_GRID 000075000302
$end

$molecule
0 1
C       1.3012799025     0.0000000708     0.3388244447
C       0.0000008952     0.0000001397     -0.5360834948
H       1.1425787147     -0.9328460038     0.8754424777
H       1.1425788692     0.9328461389     0.8754425521
H       2.0453010740     0.0000001113     -0.4528515451
C       -1.3012778231     -0.0000000175     0.3388237505
H       0.0000005711     -0.8715499856     -1.1982946403
H       0.0000010555     0.8715501019     -1.1982948855
H       -1.1425810181     -0.9328463014     0.8754428175
H       -2.0453023197     0.0000002690     -0.4528493832
H       -1.1425799819     0.9328461429     0.8754429254
--------------------------------------------------------------

             Standard Nuclear Orientation (Angstroms)
    I     Atom           X                Y                Z
 ----------------------------------------------------------------
    1      C       1.3012799025     0.0000000708     0.3388244447
    2      C       0.0000008952     0.0000001397    -0.5360834948
    3      H       1.1425787147    -0.9328460038     0.8754424777
    4      H       1.1425788692     0.9328461389     0.8754425521
    5      H       2.0453010740     0.0000001113    -0.4528515451
    6      C      -1.3012778231    -0.0000000175     0.3388237505
    7      H       0.0000005711    -0.8715499856    -1.1982946403
    8      H       0.0000010555     0.8715501019    -1.1982948855
    9      H      -1.1425810181    -0.9328463014     0.8754428175
   10      H      -2.0453023197     0.0000002690    -0.4528493832
   11      H      -1.1425799819     0.9328461429     0.8754429254
 ----------------------------------------------------------------

    7    -119.0684319110      6.05E-06 Convergence criterion met
    6    -119.1126777360      4.22E-06 Convergence criterion met
 Total energy in the final basis set = -119.11267774

                    Orbital Energies (a.u.)
 --------------------------------------------------------------

 Alpha MOs
 -- Occupied --
-10.2724 -10.2686 -10.2686  -0.8831  -0.7772  -0.6634  -0.5602  -0.5284
 -0.4868  -0.4810  -0.4132  -0.4041  -0.3896

                    Cartesian Multipole Moments
 -----------------------------------------------------------------
    Charge (ESU x 10^10)
                 0.0000
    Dipole Moment (Debye)
         X      -0.0000      Y      -0.0000      Z      -0.3479
       Tot       0.3479
    Quadrupole Moments (Debye-Ang)
        XX     -23.9282     XY       0.0000     YY     -20.8919
        XZ      -0.0000     YZ      -0.0000     ZZ     -22.2598

 Total job time:  35.63s(wall), 99.21s(cpu)
        *  Thank you very much for using Q-Chem.  Have a nice day.  *
