 Q-Chem 5.2 (devel), Q-Chem, Inc., Pleasanton, CA (2019)
 Q-Chem 5.2.2 for Intel X86 EM64T Linux

User input:
--------------------------------------------------------------
$rem
   JOBTYPE  sp
   EXCHANGE   omegaB97X-D
   BASIS   6-311+G(2df,2pd)
   max_scf_cycles   250
   geom_opt_max_cycles   1500
   basis2 6-31G*
   scf_algorithm rca_diis
   SYM_IGNORE  TRUE
   print_input   true
   geom_opt_dmax   80
   pop_mulliken false
   XC_GRID 000075000302
$end

$molecule
0 1
C       1.2661493804     -0.0516832576     0.2532456238
C       0.0000012118     -0.0000006335     -0.5934636358
H       1.0879932713     -0.8624678477     0.9500599432
H       1.5233642190     0.8433894327     0.8384836514
H       2.1429128771     0.2410817319     -0.3252831280
C       -1.2661474000     0.0516815057     0.2532478682
H       -0.0525395725     -0.8723218246     -1.2492467068
H       0.0525366580     0.8723210155     -1.2492464799
H       -1.5233610583     -0.8433987931     0.8384741367
H       -2.1429163220     -0.2410777740     -0.3252759975
H       -1.0879933254     0.8624771108     0.9500497435
--------------------------------------------------------------

             Standard Nuclear Orientation (Angstroms)
    I     Atom           X                Y                Z
 ----------------------------------------------------------------
    1      C       1.2661493804    -0.0516832576     0.2532456238
    2      C       0.0000012118    -0.0000006335    -0.5934636358
    3      H       1.0879932713    -0.8624678477     0.9500599432
    4      H       1.5233642190     0.8433894327     0.8384836514
    5      H       2.1429128771     0.2410817319    -0.3252831280
    6      C      -1.2661474000     0.0516815057     0.2532478682
    7      H      -0.0525395725    -0.8723218246    -1.2492467068
    8      H       0.0525366580     0.8723210155    -1.2492464799
    9      H      -1.5233610583    -0.8433987931     0.8384741367
   10      H      -2.1429163220    -0.2410777740    -0.3252759975
   11      H      -1.0879933254     0.8624771108     0.9500497435
 ----------------------------------------------------------------

    7    -119.0448634668      7.34E-06 Convergence criterion met
    6    -119.0910878909      4.22E-06 Convergence criterion met
 Total energy in the final basis set = -119.09108789

                    Orbital Energies (a.u.)
 --------------------------------------------------------------

 Alpha MOs
 -- Occupied --
-10.2750 -10.2662 -10.2662  -0.8845  -0.7844  -0.6838  -0.5580  -0.5551
 -0.4769  -0.4433  -0.4359  -0.4069  -0.3691

                    Cartesian Multipole Moments
 -----------------------------------------------------------------
    Charge (ESU x 10^10)
                -0.0000
    Dipole Moment (Debye)
         X      -0.0000      Y       0.0000      Z      -0.0286
       Tot       0.0286
    Quadrupole Moments (Debye-Ang)
        XX     -22.0499     XY       2.2350     YY     -21.5257
        XZ       0.0000     YZ      -0.0000     ZZ     -22.1275

 Total job time:  34.34s(wall), 96.08s(cpu)
        *  Thank you very much for using Q-Chem.  Have a nice day.  *
