 Q-Chem 5.2 (devel), Q-Chem, Inc., Pleasanton, CA (2019)
 Q-Chem 5.2.2 for Intel X86 EM64T Linux

User input:
--------------------------------------------------------------
$rem
   JOBTYPE  sp
   EXCHANGE   omegaB97X-D
   BASIS   6-311+G(2df,2pd)
   max_scf_cycles   250
   geom_opt_max_cycles   1500
   basis2 6-31G*
   scf_algorithm rca_diis
   SYM_IGNORE  TRUE
   print_input   true
   geom_opt_dmax   80
   pop_mulliken false
   XC_GRID 000075000302
$end

$molecule
0 1
C       1.2251305220     0.3237754352     0.2659197463
C       0.0000011070     -0.0000071787     -0.5808063435
H       0.9791344038     0.9810146167     1.1049488295
H       1.9724127541     0.8334154454     -0.3421555967
H       1.6855402271     -0.5790876293     0.6683966392
C       -1.2251306567     -0.3237694602     0.2659239673
H       0.1635477565     -0.8587810889     -1.2361819986
H       -0.1635431308     0.8587503728     -1.2362034763
H       -1.9724330006     -0.8333740400     -0.3421571546
H       -1.6855123166     0.5790982000     0.6684225334
H       -0.9791477263     -0.9810340070     1.1049378729
--------------------------------------------------------------

             Standard Nuclear Orientation (Angstroms)
    I     Atom           X                Y                Z
 ----------------------------------------------------------------
    1      C       1.2251305220     0.3237754352     0.2659197463
    2      C       0.0000011070    -0.0000071787    -0.5808063435
    3      H       0.9791344038     0.9810146167     1.1049488295
    4      H       1.9724127541     0.8334154454    -0.3421555967
    5      H       1.6855402271    -0.5790876293     0.6683966392
    6      C      -1.2251306567    -0.3237694602     0.2659239673
    7      H       0.1635477565    -0.8587810889    -1.2361819986
    8      H      -0.1635431308     0.8587503728    -1.2362034763
    9      H      -1.9724330006    -0.8333740400    -0.3421571546
   10      H      -1.6855123166     0.5790982000     0.6684225334
   11      H      -0.9791477263    -0.9810340070     1.1049378729
 ----------------------------------------------------------------

    7    -119.0999533298      4.57E-06 Convergence criterion met
    6    -119.1429705019      3.82E-06 Convergence criterion met
 Total energy in the final basis set = -119.14297050

                    Orbital Energies (a.u.)
 --------------------------------------------------------------

 Alpha MOs
 -- Occupied --
-10.2735 -10.2646 -10.2646  -0.8809  -0.7774  -0.6772  -0.5454  -0.5230
 -0.4838  -0.4664  -0.4192  -0.4150  -0.4043

                    Cartesian Multipole Moments
 -----------------------------------------------------------------
    Charge (ESU x 10^10)
                 0.0000
    Dipole Moment (Debye)
         X      -0.0000      Y      -0.0000      Z      -0.0943
       Tot       0.0943
    Quadrupole Moments (Debye-Ang)
        XX     -22.3100     XY      -0.1087     YY     -21.2954
        XZ      -0.0000     YZ      -0.0000     ZZ     -21.7859

 Total job time:  34.87s(wall), 97.43s(cpu)
        *  Thank you very much for using Q-Chem.  Have a nice day.  *
