 Q-Chem 5.2 (devel), Q-Chem, Inc., Pleasanton, CA (2019)
 Q-Chem 5.2.2 for Intel X86 EM64T Linux

User input:
--------------------------------------------------------------
$rem
   JOBTYPE  sp
   EXCHANGE   omegaB97X-D
   BASIS   6-311+G(2df,2pd)
   max_scf_cycles   250
   geom_opt_max_cycles   1500
   basis2 6-31G*
   scf_algorithm rca_diis
   SYM_IGNORE  TRUE
   print_input   true
   geom_opt_dmax   80
   pop_mulliken false
   XC_GRID 000075000302
$end

$molecule
0 1
C       1.2671493063     0.0722166512     0.2540164039
C       -0.0000006050     0.0717544040     -0.5927717489
H       1.5055158750     -0.8239037079     0.8415644837
H       1.1062260754     0.8916336305     0.9482896838
H       2.1370977983     -0.2325730053     -0.3285764271
C       -1.2671509503     0.0722176401     0.2540153906
H       -0.0000002850     -0.8168528057     -1.2255588192
H       0.0000003815     0.9303533154     -1.2712151782
H       -1.5055179384     -0.8239002161     0.8415674528
H       -2.1370963344     -0.2325748443     -0.3285799274
H       -1.1062233840     0.8916296041     0.9482937048
--------------------------------------------------------------

             Standard Nuclear Orientation (Angstroms)
    I     Atom           X                Y                Z
 ----------------------------------------------------------------
    1      C       1.2671493063     0.0722166512     0.2540164039
    2      C      -0.0000006050     0.0717544040    -0.5927717489
    3      H       1.5055158750    -0.8239037079     0.8415644837
    4      H       1.1062260754     0.8916336305     0.9482896838
    5      H       2.1370977983    -0.2325730053    -0.3285764271
    6      C      -1.2671509503     0.0722176401     0.2540153906
    7      H      -0.0000002850    -0.8168528057    -1.2255588192
    8      H       0.0000003815     0.9303533154    -1.2712151782
    9      H      -1.5055179384    -0.8239002161     0.8415674528
   10      H      -2.1370963344    -0.2325748443    -0.3285799274
   11      H      -1.1062233840     0.8916296041     0.9482937048
 ----------------------------------------------------------------

    7    -119.0441697356      8.23E-06 Convergence criterion met
    6    -119.0904546213      3.88E-06 Convergence criterion met
 Total energy in the final basis set = -119.09045462

                    Orbital Energies (a.u.)
 --------------------------------------------------------------

 Alpha MOs
 -- Occupied --
-10.2750 -10.2664 -10.2664  -0.8847  -0.7838  -0.6838  -0.5791  -0.5033
 -0.5028  -0.4746  -0.4167  -0.3913  -0.3784

                    Cartesian Multipole Moments
 -----------------------------------------------------------------
    Charge (ESU x 10^10)
                -0.0000
    Dipole Moment (Debye)
         X       0.0000      Y      -0.4321      Z      -0.0481
       Tot       0.4348
    Quadrupole Moments (Debye-Ang)
        XX     -22.1565     XY       0.0000     YY     -21.4659
        XZ       0.0000     YZ       0.5890     ZZ     -22.1100

 Total job time:  34.49s(wall), 96.71s(cpu)
        *  Thank you very much for using Q-Chem.  Have a nice day.  *
