 Q-Chem 5.2 (devel), Q-Chem, Inc., Pleasanton, CA (2019)
 Q-Chem 5.2.2 for Intel X86 EM64T Linux

User input:
--------------------------------------------------------------
$rem
   JOBTYPE  sp
   EXCHANGE   omegaB97X-D
   BASIS   6-311+G(2df,2pd)
   max_scf_cycles   250
   geom_opt_max_cycles   1500
   basis2 6-31G*
   scf_algorithm rca_diis
   SYM_IGNORE  TRUE
   print_input   true
   geom_opt_dmax   80
   pop_mulliken false
   XC_GRID 000075000302
$end

$molecule
0 1
C       1.2658679833     -0.0000000012     0.2503940215
C       -0.0000001382     0.0000000080     -0.6118332944
H       1.3045348878     -0.8762720028     0.8905652672
H       1.3045348622     0.8762720253     0.8905653311
H       2.1805653356     0.0000000172     -0.3830302639
C       -1.2658683379     -0.0000001290     0.2503941897
H       -0.0000001507     -0.7571040848     -1.1720550334
H       -0.0000002370     0.7571038575     -1.1720548354
H       -1.3045350145     -0.8762703613     0.8905641292
H       -2.1805641817     0.0000006102     -0.3830290828
H       -1.3045350695     0.8762707269     0.8905645901
--------------------------------------------------------------

             Standard Nuclear Orientation (Angstroms)
    I     Atom           X                Y                Z
 ----------------------------------------------------------------
    1      C       1.2658679833    -0.0000000012     0.2503940215
    2      C      -0.0000001382     0.0000000080    -0.6118332944
    3      H       1.3045348878    -0.8762720028     0.8905652672
    4      H       1.3045348622     0.8762720253     0.8905653311
    5      H       2.1805653356     0.0000000172    -0.3830302639
    6      C      -1.2658683379    -0.0000001290     0.2503941897
    7      H      -0.0000001507    -0.7571040848    -1.1720550334
    8      H      -0.0000002370     0.7571038575    -1.1720548354
    9      H      -1.3045350145    -0.8762703613     0.8905641292
   10      H      -2.1805641817     0.0000006102    -0.3830290828
   11      H      -1.3045350695     0.8762707269     0.8905645901
 ----------------------------------------------------------------

    7    -119.0627257071      6.17E-06 Convergence criterion met
    5    -119.1087146512      6.92E-06 Convergence criterion met
 Total energy in the final basis set = -119.10871465

                    Orbital Energies (a.u.)
 --------------------------------------------------------------

 Alpha MOs
 -- Occupied --
-10.2644 -10.2644 -10.2394  -0.8905  -0.7733  -0.7016  -0.5619  -0.5193
 -0.4809  -0.4634  -0.4249  -0.4243  -0.4114

                    Cartesian Multipole Moments
 -----------------------------------------------------------------
    Charge (ESU x 10^10)
                -0.0000
    Dipole Moment (Debye)
         X      -0.0000      Y      -0.0000      Z      -0.2222
       Tot       0.2222
    Quadrupole Moments (Debye-Ang)
        XX     -22.2465     XY      -0.0000     YY     -21.1635
        XZ      -0.0000     YZ      -0.0000     ZZ     -21.3626

 Total job time:  30.92s(wall), 85.94s(cpu)
        *  Thank you very much for using Q-Chem.  Have a nice day.  *
