 Q-Chem 5.2 (devel), Q-Chem, Inc., Pleasanton, CA (2019)
 Q-Chem 5.2.2 for Intel X86 EM64T Linux

User input:
--------------------------------------------------------------
$rem
   JOBTYPE  sp
   EXCHANGE   omegaB97X-D
   BASIS   6-311+G(2df,2pd)
   max_scf_cycles   250
   geom_opt_max_cycles   1500
   basis2 6-31G*
   scf_algorithm rca_diis
   SYM_IGNORE  TRUE
   print_input   true
   geom_opt_dmax   80
   pop_mulliken false
   XC_GRID 000075000302
$end

$molecule
0 1
C       1.2699574616     0.0000000103     0.2666010012
C       0.0000002794     0.0000000473     -0.5828338432
H       1.3044620239     -0.8445301811     0.8828593736
H       1.3044620586     0.8445302320     0.8828593821
H       2.1342171545     -0.0000000061     -0.3332762352
C       -1.2699567967     0.0000000878     0.2666005365
H       0.0000003454     -0.8723561072     -1.2371047710
H       0.0000003146     0.8723560845     -1.2371047055
H       -1.3044617933     -0.8445336620     0.8828616276
H       -2.1342193578     0.0000007535     -0.3332786800
H       -1.3044617508     0.8445334070     0.8828613327
--------------------------------------------------------------

             Standard Nuclear Orientation (Angstroms)
    I     Atom           X                Y                Z
 ----------------------------------------------------------------
    1      C       1.2699574616     0.0000000103     0.2666010012
    2      C       0.0000002794     0.0000000473    -0.5828338432
    3      H       1.3044620239    -0.8445301811     0.8828593736
    4      H       1.3044620586     0.8445302320     0.8828593821
    5      H       2.1342171545    -0.0000000061    -0.3332762352
    6      C      -1.2699567967     0.0000000878     0.2666005365
    7      H       0.0000003454    -0.8723561072    -1.2371047710
    8      H       0.0000003146     0.8723560845    -1.2371047055
    9      H      -1.3044617933    -0.8445336620     0.8828616276
   10      H      -2.1342193578     0.0000007535    -0.3332786800
   11      H      -1.3044617508     0.8445334070     0.8828613327
 ----------------------------------------------------------------

    7    -119.0938197713      5.08E-06 Convergence criterion met
    6    -119.1385561745      4.08E-06 Convergence criterion met
 Total energy in the final basis set = -119.13855617

                    Orbital Energies (a.u.)
 --------------------------------------------------------------

 Alpha MOs
 -- Occupied --
-10.2714 -10.2498 -10.2498  -0.8835  -0.7878  -0.6842  -0.5490  -0.5282
 -0.4882  -0.4729  -0.4194  -0.4190  -0.4106

                    Cartesian Multipole Moments
 -----------------------------------------------------------------
    Charge (ESU x 10^10)
                 0.0000
    Dipole Moment (Debye)
         X       0.0000      Y       0.0000      Z      -0.0184
       Tot       0.0184
    Quadrupole Moments (Debye-Ang)
        XX     -21.8274     XY      -0.0000     YY     -21.1657
        XZ       0.0000     YZ      -0.0000     ZZ     -21.6333

 Total job time:  35.22s(wall), 98.24s(cpu)
        *  Thank you very much for using Q-Chem.  Have a nice day.  *
