 Q-Chem 5.2 (devel), Q-Chem, Inc., Pleasanton, CA (2019)
 Q-Chem 5.2.2 for Intel X86 EM64T Linux

User input:
--------------------------------------------------------------
$rem
   JOBTYPE  sp
   EXCHANGE   omegaB97X-D
   BASIS   6-311+G(2df,2pd)
   max_scf_cycles   250
   geom_opt_max_cycles   1500
   basis2 6-31G*
   scf_algorithm rca_diis
   SYM_IGNORE  TRUE
   print_input   true
   geom_opt_dmax   80
   pop_mulliken false
   XC_GRID 000075000302
$end

$molecule
0 1
C       1.2106305007     0.0000000571     0.2507624437
C       -0.0099242742     -0.0000001852     -0.5836771219
H       1.3691391767     -0.8512024331     0.9200810003
H       1.3691388822     0.8512025778     0.9200810134
H       2.1698659289     -0.0000000035     -0.2746592571
C       -1.3253465612     -0.0000003257     0.2725983351
H       -0.0911124349     -0.8712967169     -1.2378999706
H       -0.0911123261     0.8712964682     -1.2378998426
H       -1.2284694339     -0.9010794563     0.8770620150
H       -2.1443392983     0.0000015270     -0.4424654348
H       -1.2284702205     0.9010791566     0.8770618384
--------------------------------------------------------------

             Standard Nuclear Orientation (Angstroms)
    I     Atom           X                Y                Z
 ----------------------------------------------------------------
    1      C       1.2106305007     0.0000000571     0.2507624437
    2      C      -0.0099242742    -0.0000001852    -0.5836771219
    3      H       1.3691391767    -0.8512024331     0.9200810003
    4      H       1.3691388822     0.8512025778     0.9200810134
    5      H       2.1698659289    -0.0000000035    -0.2746592571
    6      C      -1.3253465612    -0.0000003257     0.2725983351
    7      H      -0.0911124349    -0.8712967169    -1.2378999706
    8      H      -0.0911123261     0.8712964682    -1.2378998426
    9      H      -1.2284694339    -0.9010794563     0.8770620150
   10      H      -2.1443392983     0.0000015270    -0.4424654348
   11      H      -1.2284702205     0.9010791566     0.8770618384
 ----------------------------------------------------------------

    7    -119.0893511972      5.08E-06 Convergence criterion met
    6    -119.1330380532      4.70E-06 Convergence criterion met
 Total energy in the final basis set = -119.13303805

                    Orbital Energies (a.u.)
 --------------------------------------------------------------

 Alpha MOs
 -- Occupied --
-10.2744 -10.2668 -10.2646  -0.8834  -0.7792  -0.6785  -0.5470  -0.5328
 -0.4760  -0.4631  -0.4416  -0.4060  -0.3927

                    Cartesian Multipole Moments
 -----------------------------------------------------------------
    Charge (ESU x 10^10)
                 0.0000
    Dipole Moment (Debye)
         X       0.1370      Y       0.0000      Z      -0.1096
       Tot       0.1754
    Quadrupole Moments (Debye-Ang)
        XX     -22.2012     XY      -0.0000     YY     -21.4174
        XZ       0.9867     YZ      -0.0000     ZZ     -21.9248

 Total job time:  34.54s(wall), 96.75s(cpu)
        *  Thank you very much for using Q-Chem.  Have a nice day.  *
