 Q-Chem 5.2 (devel), Q-Chem, Inc., Pleasanton, CA (2019)
 Q-Chem 5.2.2 for Intel X86 EM64T Linux

User input:
--------------------------------------------------------------
$rem
   JOBTYPE  sp
   EXCHANGE   omegaB97X-D
   BASIS   6-311+G(2df,2pd)
   max_scf_cycles   250
   geom_opt_max_cycles   1500
   basis2 6-31G*
   scf_algorithm rca_diis
   SYM_IGNORE  TRUE
   print_input   true
   geom_opt_dmax   80
   pop_mulliken false
   XC_GRID 000075000302
$end

$molecule
0 1
C       1.1710492087     0.4841265111     0.2661929728
C       0.0000023899     -0.0000110763     -0.5805556861
H       1.1523172525     1.5673814896     0.4236530250
H       2.1059482890     0.2418281079     -0.2368473244
H       1.1876449447     0.0000275022     1.2431789463
C       -1.1710499824     -0.4841187382     0.2662021692
H       0.2474116314     -0.8389082608     -1.2353823184
H       -0.2474015551     0.8388622163     -1.2354140865
H       -2.1059467327     -0.2417612053     -0.2368154411
H       -1.1876096683     -0.0000458643     1.2432016434
H       -1.1523658383     -1.5673800161     0.4236311187
--------------------------------------------------------------

             Standard Nuclear Orientation (Angstroms)
    I     Atom           X                Y                Z
 ----------------------------------------------------------------
    1      C       1.1710492087     0.4841265111     0.2661929728
    2      C       0.0000023899    -0.0000110763    -0.5805556861
    3      H       1.1523172525     1.5673814896     0.4236530250
    4      H       2.1059482890     0.2418281079    -0.2368473244
    5      H       1.1876449447     0.0000275022     1.2431789463
    6      C      -1.1710499824    -0.4841187382     0.2662021692
    7      H       0.2474116314    -0.8389082608    -1.2353823184
    8      H      -0.2474015551     0.8388622163    -1.2354140865
    9      H      -2.1059467327    -0.2417612053    -0.2368154411
   10      H      -1.1876096683    -0.0000458643     1.2432016434
   11      H      -1.1523658383    -1.5673800161     0.4236311187
 ----------------------------------------------------------------

    7    -119.0944960327      4.46E-06 Convergence criterion met
    6    -119.1376695172      3.88E-06 Convergence criterion met
 Total energy in the final basis set = -119.13766952

                    Orbital Energies (a.u.)
 --------------------------------------------------------------

 Alpha MOs
 -- Occupied --
-10.2725 -10.2640 -10.2640  -0.8810  -0.7771  -0.6772  -0.5445  -0.5249
 -0.4815  -0.4691  -0.4205  -0.4169  -0.3956

                    Cartesian Multipole Moments
 -----------------------------------------------------------------
    Charge (ESU x 10^10)
                 0.0000
    Dipole Moment (Debye)
         X      -0.0000      Y       0.0000      Z      -0.0996
       Tot       0.0996
    Quadrupole Moments (Debye-Ang)
        XX     -22.3595     XY      -0.2042     YY     -21.2286
        XZ       0.0000     YZ      -0.0000     ZZ     -21.8253

 Total job time:  40.61s(wall), 112.81s(cpu)
        *  Thank you very much for using Q-Chem.  Have a nice day.  *
