 Q-Chem 5.2 (devel), Q-Chem, Inc., Pleasanton, CA (2019)
 Q-Chem 5.2.2 for Intel X86 EM64T Linux

User input:
--------------------------------------------------------------
$rem
   JOBTYPE  sp
   EXCHANGE   omegaB97X-D
   BASIS   6-311+G(2df,2pd)
   max_scf_cycles   250
   geom_opt_max_cycles   1500
   basis2 6-31G*
   scf_algorithm rca_diis
   SYM_IGNORE  TRUE
   print_input   true
   geom_opt_dmax   80
   pop_mulliken false
   XC_GRID 000075000302
$end

$molecule
0 1
C       1.2553880830     0.0706956894     0.2595698835
C       -0.0000000024     0.1253664284     -0.6028293385
H       1.1592728965     -0.8966148526     0.7605906890
H       1.4065044014     0.8310084615     1.0260516841
H       2.1536693943     0.0003838386     -0.3546525905
C       -1.2553881080     0.0706963437     0.2595697807
H       -0.0000004322     -0.9104404236     -0.9618607034
H       0.0000003442     0.7741268214     -1.4773841604
H       -1.1592721944     -0.8966141442     0.7605906635
H       -2.1536694484     0.0003836552     -0.3546525759
H       -1.4065049946     0.8310088481     1.0260516868
--------------------------------------------------------------

             Standard Nuclear Orientation (Angstroms)
    I     Atom           X                Y                Z
 ----------------------------------------------------------------
    1      C       1.2553880830     0.0706956894     0.2595698835
    2      C      -0.0000000024     0.1253664284    -0.6028293385
    3      H       1.1592728965    -0.8966148526     0.7605906890
    4      H       1.4065044014     0.8310084615     1.0260516841
    5      H       2.1536693943     0.0003838386    -0.3546525905
    6      C      -1.2553881080     0.0706963437     0.2595697807
    7      H      -0.0000004322    -0.9104404236    -0.9618607034
    8      H       0.0000003442     0.7741268214    -1.4773841604
    9      H      -1.1592721944    -0.8966141442     0.7605906635
   10      H      -2.1536694484     0.0003836552    -0.3546525759
   11      H      -1.4065049946     0.8310088481     1.0260516868
 ----------------------------------------------------------------

    7    -119.0860353583      4.73E-06 Convergence criterion met
    6    -119.1295524737      3.79E-06 Convergence criterion met
 Total energy in the final basis set = -119.12955247

                    Orbital Energies (a.u.)
 --------------------------------------------------------------

 Alpha MOs
 -- Occupied --
-10.2754 -10.2661 -10.2661  -0.8870  -0.7773  -0.6766  -0.5537  -0.5218
 -0.4880  -0.4575  -0.4239  -0.4155  -0.3978

                    Cartesian Multipole Moments
 -----------------------------------------------------------------
    Charge (ESU x 10^10)
                -0.0000
    Dipole Moment (Debye)
         X       0.0000      Y      -0.1705      Z      -0.1016
       Tot       0.1985
    Quadrupole Moments (Debye-Ang)
        XX     -22.2234     XY      -0.0000     YY     -21.5074
        XZ      -0.0000     YZ       0.0497     ZZ     -21.7814

 Total job time:  34.65s(wall), 97.01s(cpu)
        *  Thank you very much for using Q-Chem.  Have a nice day.  *
