 Q-Chem 5.2 (devel), Q-Chem, Inc., Pleasanton, CA (2019)
 Q-Chem 5.2.2 for Intel X86 EM64T Linux

User input:
--------------------------------------------------------------
$rem
   JOBTYPE  sp
   EXCHANGE   omegaB97X-D
   BASIS   6-311+G(2df,2pd)
   max_scf_cycles   250
   geom_opt_max_cycles   1500
   basis2 6-31G*
   scf_algorithm rca_diis
   SYM_IGNORE  TRUE
   print_input   true
   geom_opt_dmax   80
   pop_mulliken false
   XC_GRID 000075000302
$end

$molecule
0 1
C       1.1516673593     0.0000004971     0.2590661934
C       0.0000000661     -0.0000017107     -0.7214917565
H       1.0559206551     -0.8758920321     0.9048729840
H       1.0559170338     0.8758932855     0.9048721126
H       2.1522182713     0.0000028238     -0.1707399364
C       -1.1516671508     -0.0000002050     0.2590663223
H       -0.0000003550     -0.8802520041     -1.3668026050
H       0.0000001114     0.8802478733     -1.3668035645
H       -1.0559219614     -0.8758944157     0.9048710333
H       -2.1522180439     0.0000055880     -0.1707401209
H       -1.0559160465     0.8758909659     0.9048743565
--------------------------------------------------------------

             Standard Nuclear Orientation (Angstroms)
    I     Atom           X                Y                Z
 ----------------------------------------------------------------
    1      C       1.1516673593     0.0000004971     0.2590661934
    2      C       0.0000000661    -0.0000017107    -0.7214917565
    3      H       1.0559206551    -0.8758920321     0.9048729840
    4      H       1.0559170338     0.8758932855     0.9048721126
    5      H       2.1522182713     0.0000028238    -0.1707399364
    6      C      -1.1516671508    -0.0000002050     0.2590663223
    7      H      -0.0000003550    -0.8802520041    -1.3668026050
    8      H       0.0000001114     0.8802478733    -1.3668035645
    9      H      -1.0559219614    -0.8758944157     0.9048710333
   10      H      -2.1522180439     0.0000055880    -0.1707401209
   11      H      -1.0559160465     0.8758909659     0.9048743565
 ----------------------------------------------------------------

    7    -119.0926009666      5.09E-06 Convergence criterion met
    5    -119.1359927659      7.98E-06 Convergence criterion met
 Total energy in the final basis set = -119.13599277

                    Orbital Energies (a.u.)
 --------------------------------------------------------------

 Alpha MOs
 -- Occupied --
-10.2735 -10.2633 -10.2633  -0.8945  -0.7651  -0.6846  -0.5547  -0.5356
 -0.4686  -0.4505  -0.4333  -0.4156  -0.4071

                    Cartesian Multipole Moments
 -----------------------------------------------------------------
    Charge (ESU x 10^10)
                 0.0000
    Dipole Moment (Debye)
         X      -0.0000      Y       0.0000      Z      -0.0472
       Tot       0.0472
    Quadrupole Moments (Debye-Ang)
        XX     -22.4889     XY      -0.0000     YY     -21.2933
        XZ      -0.0000     YZ      -0.0000     ZZ     -21.8019

 Total job time:  31.77s(wall), 88.48s(cpu)
        *  Thank you very much for using Q-Chem.  Have a nice day.  *
