 Q-Chem 5.2 (devel), Q-Chem, Inc., Pleasanton, CA (2019)
 Q-Chem 5.2.2 for Intel X86 EM64T Linux

User input:
--------------------------------------------------------------
$rem
   JOBTYPE  sp
   EXCHANGE   omegaB97X-D
   BASIS   6-311+G(2df,2pd)
   max_scf_cycles   250
   geom_opt_max_cycles   1500
   basis2 6-31G*
   scf_algorithm rca_diis
   SYM_IGNORE  TRUE
   print_input   true
   geom_opt_dmax   80
   pop_mulliken false
   XC_GRID 000075000302
$end

$molecule
0 1
C       1.2619600345     0.2053496542     0.1037352209
C       -0.0000020073     -0.5996138680     -0.1829944047
H       2.1463700132     -0.0142536080     -0.4919203933
H       1.4970618239     -0.0254002038     1.1480901729
H       1.0724309019     1.2775768286     0.0441072437
C       -1.2619587453     0.2053589681     0.1037304178
H       -0.0000061340     -1.6275614135     0.1892985994
H       -0.0000001003     -0.6594188942     -1.2732556676
H       -2.1463811600     -0.0142837733     -0.4918931398
H       -1.0724397462     1.2775843828     0.0440435951
H       -1.4970349409     -0.0253374069     1.1481033744
--------------------------------------------------------------

             Standard Nuclear Orientation (Angstroms)
    I     Atom           X                Y                Z
 ----------------------------------------------------------------
    1      C       1.2619600345     0.2053496542     0.1037352209
    2      C      -0.0000020073    -0.5996138680    -0.1829944047
    3      H       2.1463700132    -0.0142536080    -0.4919203933
    4      H       1.4970618239    -0.0254002038     1.1480901729
    5      H       1.0724309019     1.2775768286     0.0441072437
    6      C      -1.2619587453     0.2053589681     0.1037304178
    7      H      -0.0000061340    -1.6275614135     0.1892985994
    8      H      -0.0000001003    -0.6594188942    -1.2732556676
    9      H      -2.1463811600    -0.0142837733    -0.4918931398
   10      H      -1.0724397462     1.2775843828     0.0440435951
   11      H      -1.4970349409    -0.0253374069     1.1481033744
 ----------------------------------------------------------------

    7    -119.0874450350      4.73E-06 Convergence criterion met
    6    -119.1309681980      4.18E-06 Convergence criterion met
 Total energy in the final basis set = -119.13096820

                    Orbital Energies (a.u.)
 --------------------------------------------------------------

 Alpha MOs
 -- Occupied --
-10.2732 -10.2653 -10.2653  -0.8836  -0.7764  -0.6784  -0.5475  -0.5295
 -0.4758  -0.4670  -0.4324  -0.4190  -0.3835

                    Cartesian Multipole Moments
 -----------------------------------------------------------------
    Charge (ESU x 10^10)
                -0.0000
    Dipole Moment (Debye)
         X      -0.0000      Y      -0.0447      Z      -0.0654
       Tot       0.0792
    Quadrupole Moments (Debye-Ang)
        XX     -22.1383     XY       0.0000     YY     -21.4638
        XZ      -0.0000     YZ      -0.5254     ZZ     -21.8697

 Total job time:  40.60s(wall), 112.81s(cpu)
        *  Thank you very much for using Q-Chem.  Have a nice day.  *
