 Q-Chem 5.2 (devel), Q-Chem, Inc., Pleasanton, CA (2019)
 Q-Chem 5.2.2 for Intel X86 EM64T Linux

User input:
--------------------------------------------------------------
$rem
   JOBTYPE  sp
   EXCHANGE   omegaB97X-D
   BASIS   6-311+G(2df,2pd)
   max_scf_cycles   250
   geom_opt_max_cycles   1500
   basis2 6-31G*
   scf_algorithm rca_diis
   SYM_IGNORE  TRUE
   print_input   true
   geom_opt_dmax   80
   pop_mulliken false
   XC_GRID 000075000302
$end

$molecule
0 1
C       1.1915517296     0.4312242430     0.2667939436
C       0.0000019196     -0.0000097816     -0.5799463608
H       1.0670619989     1.4395127386     0.6738927695
H       2.0925672764     0.4334146005     -0.3453078516
H       1.3604523245     -0.2515717213     1.1000948044
C       -1.1915521872     -0.4312170087     0.2668013372
H       0.2194718594     -0.8464856706     -1.2349800505
H       -0.2194638353     0.8464446609     -1.2350084201
H       -2.0925764230     -0.4333534397     -0.3452889278
H       -1.3604165707     0.2515641645     1.1001215932
H       -1.0670981528     -1.4395221197     0.6738721819
--------------------------------------------------------------

             Standard Nuclear Orientation (Angstroms)
    I     Atom           X                Y                Z
 ----------------------------------------------------------------
    1      C       1.1915517296     0.4312242430     0.2667939436
    2      C       0.0000019196    -0.0000097816    -0.5799463608
    3      H       1.0670619989     1.4395127386     0.6738927695
    4      H       2.0925672764     0.4334146005    -0.3453078516
    5      H       1.3604523245    -0.2515717213     1.1000948044
    6      C      -1.1915521872    -0.4312170087     0.2668013372
    7      H       0.2194718594    -0.8464856706    -1.2349800505
    8      H      -0.2194638353     0.8464446609    -1.2350084201
    9      H      -2.0925764230    -0.4333534397    -0.3452889278
   10      H      -1.3604165707     0.2515641645     1.1001215932
   11      H      -1.0670981528    -1.4395221197     0.6738721819
 ----------------------------------------------------------------

    7    -119.0997085669      4.58E-06 Convergence criterion met
    6    -119.1427029571      3.80E-06 Convergence criterion met
 Total energy in the final basis set = -119.14270296

                    Orbital Energies (a.u.)
 --------------------------------------------------------------

 Alpha MOs
 -- Occupied --
-10.2736 -10.2646 -10.2646  -0.8810  -0.7775  -0.6772  -0.5452  -0.5230
 -0.4842  -0.4664  -0.4194  -0.4181  -0.4008

                    Cartesian Multipole Moments
 -----------------------------------------------------------------
    Charge (ESU x 10^10)
                 0.0000
    Dipole Moment (Debye)
         X      -0.0000      Y       0.0000      Z      -0.1026
       Tot       0.1026
    Quadrupole Moments (Debye-Ang)
        XX     -22.2982     XY      -0.1493     YY     -21.2760
        XZ       0.0000     YZ      -0.0000     ZZ     -21.8086

 Total job time:  45.06s(wall), 115.66s(cpu)
        *  Thank you very much for using Q-Chem.  Have a nice day.  *
