 Q-Chem 5.2 (devel), Q-Chem, Inc., Pleasanton, CA (2019)
 Q-Chem 5.2.2 for Intel X86 EM64T Linux

User input:
--------------------------------------------------------------
$rem
   JOBTYPE  sp
   EXCHANGE   omegaB97X-D
   BASIS   6-311+G(2df,2pd)
   max_scf_cycles   250
   geom_opt_max_cycles   1500
   basis2 6-31G*
   scf_algorithm rca_diis
   SYM_IGNORE  TRUE
   print_input   true
   geom_opt_dmax   80
   pop_mulliken false
   XC_GRID 000075000302
$end

$molecule
0 1
C       1.2592620242     -0.2330112635     0.0380794583
C       -0.0000026237     0.6245578677     -0.0013087891
H       1.8177620563     0.1981681035     0.8765383610
H       1.9170851823     -0.2488210424     -0.8282894984
H       1.0277921140     -1.2647332913     0.3047679189
C       -1.2592629517     -0.2330186996     0.0380736488
H       -0.0000015268     0.9390773947     -1.0467599062
H       -0.0000069793     1.5332133712     0.6069519939
H       -1.8177392458     0.1980995605     0.8765788848
H       -1.0277744879     -1.2647561372     0.3046877396
H       -1.9171136221     -0.2487751977     -0.8282747928
--------------------------------------------------------------

             Standard Nuclear Orientation (Angstroms)
    I     Atom           X                Y                Z
 ----------------------------------------------------------------
    1      C       1.2592620242    -0.2330112635     0.0380794583
    2      C      -0.0000026237     0.6245578677    -0.0013087891
    3      H       1.8177620563     0.1981681035     0.8765383610
    4      H       1.9170851823    -0.2488210424    -0.8282894984
    5      H       1.0277921140    -1.2647332913     0.3047679189
    6      C      -1.2592629517    -0.2330186996     0.0380736488
    7      H      -0.0000015268     0.9390773947    -1.0467599062
    8      H      -0.0000069793     1.5332133712     0.6069519939
    9      H      -1.8177392458     0.1980995605     0.8765788848
   10      H      -1.0277744879    -1.2647561372     0.3046877396
   11      H      -1.9171136221    -0.2487751977    -0.8282747928
 ----------------------------------------------------------------

    7    -119.0748649010      4.66E-06 Convergence criterion met
    5    -119.1188719393      9.97E-06 Convergence criterion met
 Total energy in the final basis set = -119.11887194

                    Orbital Energies (a.u.)
 --------------------------------------------------------------

 Alpha MOs
 -- Occupied --
-10.2723 -10.2632 -10.2632  -0.8837  -0.7763  -0.6779  -0.5463  -0.5290
 -0.4858  -0.4638  -0.4347  -0.4043  -0.3811

                    Cartesian Multipole Moments
 -----------------------------------------------------------------
    Charge (ESU x 10^10)
                -0.0000
    Dipole Moment (Debye)
         X       0.0000      Y       0.1169      Z      -0.0613
       Tot       0.1319
    Quadrupole Moments (Debye-Ang)
        XX     -22.5764     XY      -0.0000     YY     -21.5963
        XZ      -0.0000     YZ       0.5422     ZZ     -21.4051

 Total job time:  37.38s(wall), 102.43s(cpu)
        *  Thank you very much for using Q-Chem.  Have a nice day.  *
