 Q-Chem 5.2 (devel), Q-Chem, Inc., Pleasanton, CA (2019)
 Q-Chem 5.2.2 for Intel X86 EM64T Linux

User input:
--------------------------------------------------------------
$rem
   JOBTYPE  sp
   EXCHANGE   omegaB97X-D
   BASIS   6-311+G(2df,2pd)
   max_scf_cycles   250
   geom_opt_max_cycles   1500
   basis2 6-31G*
   scf_algorithm rca_diis
   SYM_IGNORE  TRUE
   print_input   true
   geom_opt_dmax   80
   pop_mulliken false
   XC_GRID 000075000302
$end

$molecule
0 1
C       1.0664081409     0.6844242662     0.2577332378
C       0.0000045156     -0.0000156976     -0.5890544931
H       1.6684247995     1.4039243730     -0.3091315111
H       1.7422449809     -0.0731168659     0.6480414674
H       0.6292720225     1.2036957723     1.1111973938
C       -1.0664115467     -0.6844139363     0.2577509629
H       0.3559611354     -0.7997983923     -1.2428134166
H       -0.3559409029     0.7997340010     -1.2428586641
H       -1.7421806411     0.0731626687     0.6481103848
H       -0.6292824168     -1.2037407834     1.1111849251
H       -1.6685001477     -1.4038547397     -0.3091152680
--------------------------------------------------------------

             Standard Nuclear Orientation (Angstroms)
    I     Atom           X                Y                Z
 ----------------------------------------------------------------
    1      C       1.0664081409     0.6844242662     0.2577332378
    2      C       0.0000045156    -0.0000156976    -0.5890544931
    3      H       1.6684247995     1.4039243730    -0.3091315111
    4      H       1.7422449809    -0.0731168659     0.6480414674
    5      H       0.6292720225     1.2036957723     1.1111973938
    6      C      -1.0664115467    -0.6844139363     0.2577509629
    7      H       0.3559611354    -0.7997983923    -1.2428134166
    8      H      -0.3559409029     0.7997340010    -1.2428586641
    9      H      -1.7421806411     0.0731626687     0.6481103848
   10      H      -0.6292824168    -1.2037407834     1.1111849251
   11      H      -1.6685001477    -1.4038547397    -0.3091152680
 ----------------------------------------------------------------

    7    -119.0961581919      4.60E-06 Convergence criterion met
    6    -119.1393345389      4.00E-06 Convergence criterion met
 Total energy in the final basis set = -119.13933454

                    Orbital Energies (a.u.)
 --------------------------------------------------------------

 Alpha MOs
 -- Occupied --
-10.2733 -10.2655 -10.2655  -0.8819  -0.7775  -0.6778  -0.5464  -0.5254
 -0.4830  -0.4657  -0.4250  -0.4163  -0.3961

                    Cartesian Multipole Moments
 -----------------------------------------------------------------
    Charge (ESU x 10^10)
                -0.0000
    Dipole Moment (Debye)
         X       0.0000      Y      -0.0000      Z      -0.0566
       Tot       0.0566
    Quadrupole Moments (Debye-Ang)
        XX     -22.2596     XY      -0.1500     YY     -21.2610
        XZ      -0.0000     YZ      -0.0000     ZZ     -21.8941

 Total job time:  40.21s(wall), 111.57s(cpu)
        *  Thank you very much for using Q-Chem.  Have a nice day.  *
