 Q-Chem 5.2 (devel), Q-Chem, Inc., Pleasanton, CA (2019)
 Q-Chem 5.2.2 for Intel X86 EM64T Linux

User input:
--------------------------------------------------------------
$rem
   JOBTYPE  sp
   EXCHANGE   omegaB97X-D
   BASIS   6-311+G(2df,2pd)
   max_scf_cycles   250
   geom_opt_max_cycles   1500
   basis2 6-31G*
   scf_algorithm rca_diis
   SYM_IGNORE  TRUE
   print_input   true
   geom_opt_dmax   80
   pop_mulliken false
   XC_GRID 000075000302
$end

$molecule
0 1
C       1.2606703777     -0.2208760061     0.0709471583
C       -0.0000022946     0.6194477331     -0.0942307913
H       1.6657011040     0.1134244485     1.0323090207
H       2.0482245828     -0.1238146045     -0.6738560484
H       1.0215717603     -1.2798849531     0.1733258557
C       -1.2606708904     -0.2208837655     0.0709426756
H       -0.0000013032     0.8079198406     -1.1696592768
H       -0.0000064312     1.5949866291     0.3995107660
H       -1.6656745210     0.1133571268     1.0323359521
H       -1.0215663590     -1.2798984349     0.1732515496
H       -2.0482460860     -0.1237773480     -0.6738318424
--------------------------------------------------------------

             Standard Nuclear Orientation (Angstroms)
    I     Atom           X                Y                Z
 ----------------------------------------------------------------
    1      C       1.2606703777    -0.2208760061     0.0709471583
    2      C      -0.0000022946     0.6194477331    -0.0942307913
    3      H       1.6657011040     0.1134244485     1.0323090207
    4      H       2.0482245828    -0.1238146045    -0.6738560484
    5      H       1.0215717603    -1.2798849531     0.1733258557
    6      C      -1.2606708904    -0.2208837655     0.0709426756
    7      H      -0.0000013032     0.8079198406    -1.1696592768
    8      H      -0.0000064312     1.5949866291     0.3995107660
    9      H      -1.6656745210     0.1133571268     1.0323359521
   10      H      -1.0215663590    -1.2798984349     0.1732515496
   11      H      -2.0482460860    -0.1237773480    -0.6738318424
 ----------------------------------------------------------------

    7    -119.0795689195      4.64E-06 Convergence criterion met
    6    -119.1233961688      4.17E-06 Convergence criterion met
 Total energy in the final basis set = -119.12339617

                    Orbital Energies (a.u.)
 --------------------------------------------------------------

 Alpha MOs
 -- Occupied --
-10.2722 -10.2642 -10.2641  -0.8837  -0.7762  -0.6783  -0.5465  -0.5300
 -0.4796  -0.4662  -0.4345  -0.4111  -0.3805

                    Cartesian Multipole Moments
 -----------------------------------------------------------------
    Charge (ESU x 10^10)
                -0.0000
    Dipole Moment (Debye)
         X       0.0000      Y       0.0724      Z      -0.0590
       Tot       0.0934
    Quadrupole Moments (Debye-Ang)
        XX     -22.3883     XY      -0.0000     YY     -21.5142
        XZ      -0.0000     YZ       0.5524     ZZ     -21.6348

 Total job time:  41.37s(wall), 114.09s(cpu)
        *  Thank you very much for using Q-Chem.  Have a nice day.  *
