 Q-Chem 5.2 (devel), Q-Chem, Inc., Pleasanton, CA (2019)
 Q-Chem 5.2.2 for Intel X86 EM64T Linux

User input:
--------------------------------------------------------------
$rem
   JOBTYPE  sp
   EXCHANGE   omegaB97X-D
   BASIS   6-311+G(2df,2pd)
   max_scf_cycles   250
   geom_opt_max_cycles   1500
   basis2 6-31G*
   scf_algorithm rca_diis
   SYM_IGNORE  TRUE
   print_input   true
   geom_opt_dmax   80
   pop_mulliken false
   XC_GRID 000075000302
$end

$molecule
0 1
C       1.2742535423     0.0000000864     0.2085264943
C       -0.0000000409     -0.0000001233     -0.5591840815
H       1.2104249023     -0.8585537967     0.8823096758
H       1.2104251311     0.8585539255     0.8823097383
H       2.2332211740     -0.0000001198     -0.3040957734
C       -1.2742534825     0.0000000598     0.2085263658
H       0.0000001429     -0.8699428799     -1.2189356384
H       -0.0000001260     0.8699428037     -1.2189354131
H       -1.2104249584     -0.8585538036     0.8823095680
H       -2.2332213074     0.0000006634     -0.3040956307
H       -1.2104250380     0.8585538506     0.8823097137
--------------------------------------------------------------

             Standard Nuclear Orientation (Angstroms)
    I     Atom           X                Y                Z
 ----------------------------------------------------------------
    1      C       1.2742535423     0.0000000864     0.2085264943
    2      C      -0.0000000409    -0.0000001233    -0.5591840815
    3      H       1.2104249023    -0.8585537967     0.8823096758
    4      H       1.2104251311     0.8585539255     0.8823097383
    5      H       2.2332211740    -0.0000001198    -0.3040957734
    6      C      -1.2742534825     0.0000000598     0.2085263658
    7      H       0.0000001429    -0.8699428799    -1.2189356384
    8      H      -0.0000001260     0.8699428037    -1.2189354131
    9      H      -1.2104249584    -0.8585538036     0.8823095680
   10      H      -2.2332213074     0.0000006634    -0.3040956307
   11      H      -1.2104250380     0.8585538506     0.8823097137
 ----------------------------------------------------------------

    7    -119.0909644512      4.49E-06 Convergence criterion met
    6    -119.1347909351      4.14E-06 Convergence criterion met
 Total energy in the final basis set = -119.13479094

                    Orbital Energies (a.u.)
 --------------------------------------------------------------

 Alpha MOs
 -- Occupied --
-10.2682 -10.2653 -10.2652  -0.8938  -0.7827  -0.6754  -0.5518  -0.5399
 -0.4792  -0.4570  -0.4504  -0.4024  -0.3956

                    Cartesian Multipole Moments
 -----------------------------------------------------------------
    Charge (ESU x 10^10)
                 0.0000
    Dipole Moment (Debye)
         X      -0.0000      Y       0.0000      Z      -0.0440
       Tot       0.0440
    Quadrupole Moments (Debye-Ang)
        XX     -21.4487     XY      -0.0000     YY     -21.6609
        XZ      -0.0000     YZ       0.0000     ZZ     -22.3030

 Total job time:  34.88s(wall), 97.59s(cpu)
        *  Thank you very much for using Q-Chem.  Have a nice day.  *
