 Q-Chem 5.2 (devel), Q-Chem, Inc., Pleasanton, CA (2019)
 Q-Chem 5.2.2 for Intel X86 EM64T Linux

User input:
--------------------------------------------------------------
$rem
   JOBTYPE  sp
   EXCHANGE   omegaB97X-D
   BASIS   6-311+G(2df,2pd)
   max_scf_cycles   250
   geom_opt_max_cycles   1500
   basis2 6-31G*
   scf_algorithm rca_diis
   SYM_IGNORE  TRUE
   print_input   true
   geom_opt_dmax   80
   pop_mulliken false
   XC_GRID 000075000302
$end

$molecule
0 1
C       1.2613265886     -0.2135262795     0.0874224158
C       -0.0000021086     0.6113339877     -0.1392460763
H       1.5823718671     0.0701436078     1.0954258028
H       2.1021635320     -0.0564330412     -0.5857182214
H       1.0400533214     -1.2811273973     0.1077807574
C       -1.2613268678     -0.2135341042     0.0874185334
H       -0.0000011429     0.7356594961     -1.2240041769
H       -0.0000061391     1.6149434567     0.2944996315
H       -1.5823449921     0.0700776055     1.0954462958
H       -1.0400531896     -1.2811366903     0.1077105786
H       -2.1021809297     -0.0563999752     -0.5856905219
--------------------------------------------------------------

             Standard Nuclear Orientation (Angstroms)
    I     Atom           X                Y                Z
 ----------------------------------------------------------------
    1      C       1.2613265886    -0.2135262795     0.0874224158
    2      C      -0.0000021086     0.6113339877    -0.1392460763
    3      H       1.5823718671     0.0701436078     1.0954258028
    4      H       2.1021635320    -0.0564330412    -0.5857182214
    5      H       1.0400533214    -1.2811273973     0.1077807574
    6      C      -1.2613268678    -0.2135341042     0.0874185334
    7      H      -0.0000011429     0.7356594961    -1.2240041769
    8      H      -0.0000061391     1.6149434567     0.2944996315
    9      H      -1.5823449921     0.0700776055     1.0954462958
   10      H      -1.0400531896    -1.2811366903     0.1077105786
   11      H      -2.1021809297    -0.0563999752    -0.5856905219
 ----------------------------------------------------------------

    7    -119.0833207645      4.68E-06 Convergence criterion met
    6    -119.1270018630      4.18E-06 Convergence criterion met
 Total energy in the final basis set = -119.12700186

                    Orbital Energies (a.u.)
 --------------------------------------------------------------

 Alpha MOs
 -- Occupied --
-10.2727 -10.2647 -10.2647  -0.8836  -0.7762  -0.6784  -0.5470  -0.5298
 -0.4771  -0.4672  -0.4338  -0.4150  -0.3816

                    Cartesian Multipole Moments
 -----------------------------------------------------------------
    Charge (ESU x 10^10)
                 0.0000
    Dipole Moment (Debye)
         X       0.0000      Y       0.0562      Z      -0.0612
       Tot       0.0831
    Quadrupole Moments (Debye-Ang)
        XX     -22.2657     XY      -0.0000     YY     -21.4827
        XZ      -0.0000     YZ       0.5442     ZZ     -21.7578

 Total job time:  41.48s(wall), 114.97s(cpu)
        *  Thank you very much for using Q-Chem.  Have a nice day.  *
