 Q-Chem 5.2 (devel), Q-Chem, Inc., Pleasanton, CA (2019)
 Q-Chem 5.2.2 for Intel X86 EM64T Linux

User input:
--------------------------------------------------------------
$rem
   JOBTYPE  sp
   EXCHANGE   omegaB97X-D
   BASIS   6-311+G(2df,2pd)
   max_scf_cycles   250
   geom_opt_max_cycles   1500
   basis2 6-31G*
   scf_algorithm rca_diis
   SYM_IGNORE  TRUE
   print_input   true
   geom_opt_dmax   80
   pop_mulliken false
   XC_GRID 000075000302
$end

$molecule
0 1
C       1.3862872969     -0.0000002100     0.2923222376
C       0.0226791259     0.0000003597     -0.5731722400
H       1.1396254398     -0.9078860030     0.8365179266
H       1.1396259738     0.9078857085     0.8365179944
H       2.1033313168     0.0000000410     -0.5206215290
C       -1.1541593492     0.0000004576     0.2444824323
H       0.1842570706     -0.8636995234     -1.2225348716
H       0.1842565608     0.8637000975     -1.2225351482
H       -1.4216453767     -0.8145958088     0.9286154625
H       -2.1626145257     -0.0000011685     -0.1871631692
H       -1.4216435936     0.8145967154     0.9286159235
--------------------------------------------------------------

             Standard Nuclear Orientation (Angstroms)
    I     Atom           X                Y                Z
 ----------------------------------------------------------------
    1      C       1.3862872969    -0.0000002100     0.2923222376
    2      C       0.0226791259     0.0000003597    -0.5731722400
    3      H       1.1396254398    -0.9078860030     0.8365179266
    4      H       1.1396259738     0.9078857085     0.8365179944
    5      H       2.1033313168     0.0000000410    -0.5206215290
    6      C      -1.1541593492     0.0000004576     0.2444824323
    7      H       0.1842570706    -0.8636995234    -1.2225348716
    8      H       0.1842565608     0.8637000975    -1.2225351482
    9      H      -1.4216453767    -0.8145958088     0.9286154625
   10      H      -2.1626145257    -0.0000011685    -0.1871631692
   11      H      -1.4216435936     0.8145967154     0.9286159235
 ----------------------------------------------------------------

    7    -119.0471490896      6.42E-06 Convergence criterion met
    6    -119.0932849640      5.44E-06 Convergence criterion met
 Total energy in the final basis set = -119.09328496

                    Orbital Energies (a.u.)
 --------------------------------------------------------------

 Alpha MOs
 -- Occupied --
-10.2766 -10.2684 -10.2660  -0.8910  -0.7860  -0.6812  -0.5516  -0.5508
 -0.4686  -0.4609  -0.4566  -0.4020  -0.3669

                    Cartesian Multipole Moments
 -----------------------------------------------------------------
    Charge (ESU x 10^10)
                 0.0000
    Dipole Moment (Debye)
         X      -0.3692      Y      -0.0000      Z      -0.1986
       Tot       0.4193
    Quadrupole Moments (Debye-Ang)
        XX     -22.3571     XY       0.0000     YY     -21.5876
        XZ      -2.0209     YZ       0.0000     ZZ     -22.1670

 Total job time:  35.25s(wall), 98.18s(cpu)
        *  Thank you very much for using Q-Chem.  Have a nice day.  *
