 Q-Chem 5.2 (devel), Q-Chem, Inc., Pleasanton, CA (2019)
 Q-Chem 5.2.2 for Intel X86 EM64T Linux

User input:
--------------------------------------------------------------
$rem
   JOBTYPE  sp
   EXCHANGE   omegaB97X-D
   BASIS   6-311+G(2df,2pd)
   max_scf_cycles   250
   geom_opt_max_cycles   1500
   basis2 6-31G*
   scf_algorithm rca_diis
   SYM_IGNORE  TRUE
   print_input   true
   geom_opt_dmax   80
   pop_mulliken false
   XC_GRID 000075000302
$end

$molecule
0 1
C       1.2534007386     0.2492978460     -0.0633894328
C       -0.0000035809     -0.5245547323     0.3275884536
H       1.4047913893     0.6247949950     -1.0717529504
H       2.0171399012     -0.5128577938     0.1355410565
H       1.4407894071     1.0683941980     0.6316830908
C       -1.2533994699     0.2493048412     -0.0634002001
H       -0.0000086068     -1.1048681376     1.2546808521
H       -0.0000017721     -1.2298892175     -0.5053420288
H       -1.4048092486     0.6247185281     -1.0717928693
H       -1.4407384072     1.0684664136     0.6316081619
H       -2.0171604111     -0.5128062745     0.1356208855
--------------------------------------------------------------

             Standard Nuclear Orientation (Angstroms)
    I     Atom           X                Y                Z
 ----------------------------------------------------------------
    1      C       1.2534007386     0.2492978460    -0.0633894328
    2      C      -0.0000035809    -0.5245547323     0.3275884536
    3      H       1.4047913893     0.6247949950    -1.0717529504
    4      H       2.0171399012    -0.5128577938     0.1355410565
    5      H       1.4407894071     1.0683941980     0.6316830908
    6      C      -1.2533994699     0.2493048412    -0.0634002001
    7      H      -0.0000086068    -1.1048681376     1.2546808521
    8      H      -0.0000017721    -1.2298892175    -0.5053420288
    9      H      -1.4048092486     0.6247185281    -1.0717928693
   10      H      -1.4407384072     1.0684664136     0.6316081619
   11      H      -2.0171604111    -0.5128062745     0.1356208855
 ----------------------------------------------------------------

    7    -119.0740344207      6.37E-06 Convergence criterion met
    5    -119.1177905630      9.10E-06 Convergence criterion met
 Total energy in the final basis set = -119.11779056

                    Orbital Energies (a.u.)
 --------------------------------------------------------------

 Alpha MOs
 -- Occupied --
-10.2764 -10.2631 -10.2631  -0.8850  -0.7785  -0.6765  -0.5473  -0.5144
 -0.5009  -0.4648  -0.4468  -0.3861  -0.3860

                    Cartesian Multipole Moments
 -----------------------------------------------------------------
    Charge (ESU x 10^10)
                -0.0000
    Dipole Moment (Debye)
         X       0.0000      Y      -0.2160      Z      -0.0465
       Tot       0.2209
    Quadrupole Moments (Debye-Ang)
        XX     -23.0991     XY       0.0000     YY     -21.6674
        XZ      -0.0000     YZ      -0.6011     ZZ     -20.8917

 Total job time:  40.95s(wall), 110.48s(cpu)
        *  Thank you very much for using Q-Chem.  Have a nice day.  *
