 Q-Chem 5.2 (devel), Q-Chem, Inc., Pleasanton, CA (2019)
 Q-Chem 5.2.2 for Intel X86 EM64T Linux

User input:
--------------------------------------------------------------
$rem
   JOBTYPE  sp
   EXCHANGE   omegaB97X-D
   BASIS   6-311+G(2df,2pd)
   max_scf_cycles   250
   geom_opt_max_cycles   1500
   basis2 6-31G*
   scf_algorithm rca_diis
   SYM_IGNORE  TRUE
   print_input   true
   geom_opt_dmax   80
   pop_mulliken false
   XC_GRID 000075000302
$end

$molecule
0 1
C       1.2176695821     -0.3507694172     0.2663652328
C       0.0000010741     0.0000081148     -0.5803683966
H       2.0121369601     -0.7378680764     -0.3712405783
H       0.9905113268     -1.1180626708     1.0123301956
H       1.6089349092     0.5227149883     0.7889195668
C       -1.2176696876     0.3507644668     0.2663709340
H       -0.1774950203     -0.8560318585     -1.2356902557
H       0.1774984561     0.8560650979     -1.2356682925
H       -0.9905310011     1.1180822350     1.0123158849
H       -1.6089001274     -0.5227233964     0.7889456911
H       -2.0121565325     0.7378211824     -0.3712349633
--------------------------------------------------------------

             Standard Nuclear Orientation (Angstroms)
    I     Atom           X                Y                Z
 ----------------------------------------------------------------
    1      C       1.2176695821    -0.3507694172     0.2663652328
    2      C       0.0000010741     0.0000081148    -0.5803683966
    3      H       2.0121369601    -0.7378680764    -0.3712405783
    4      H       0.9905113268    -1.1180626708     1.0123301956
    5      H       1.6089349092     0.5227149883     0.7889195668
    6      C      -1.2176696876     0.3507644668     0.2663709340
    7      H      -0.1774950203    -0.8560318585    -1.2356902557
    8      H       0.1774984561     0.8560650979    -1.2356682925
    9      H      -0.9905310011     1.1180822350     1.0123158849
   10      H      -1.6089001274    -0.5227233964     0.7889456911
   11      H      -2.0121565325     0.7378211824    -0.3712349633
 ----------------------------------------------------------------

    7    -119.1012726291      4.60E-06 Convergence criterion met
    5    -119.1442355615      9.98E-06 Convergence criterion met
 Total energy in the final basis set = -119.14423556

                    Orbital Energies (a.u.)
 --------------------------------------------------------------

 Alpha MOs
 -- Occupied --
-10.2743 -10.2645 -10.2645  -0.8810  -0.7775  -0.6773  -0.5457  -0.5226
 -0.4847  -0.4651  -0.4192  -0.4161  -0.4050

                    Cartesian Multipole Moments
 -----------------------------------------------------------------
    Charge (ESU x 10^10)
                -0.0000
    Dipole Moment (Debye)
         X      -0.0000      Y       0.0000      Z      -0.0975
       Tot       0.0975
    Quadrupole Moments (Debye-Ang)
        XX     -22.3001     XY       0.1073     YY     -21.3083
        XZ       0.0000     YZ       0.0000     ZZ     -21.7798

 Total job time:  31.81s(wall), 88.48s(cpu)
        *  Thank you very much for using Q-Chem.  Have a nice day.  *
