 Q-Chem 5.2 (devel), Q-Chem, Inc., Pleasanton, CA (2019)
 Q-Chem 5.2.2 for Intel X86 EM64T Linux

User input:
--------------------------------------------------------------
$rem
   JOBTYPE  sp
   EXCHANGE   omegaB97X-D
   BASIS   6-311+G(2df,2pd)
   max_scf_cycles   250
   geom_opt_max_cycles   1500
   basis2 6-31G*
   scf_algorithm rca_diis
   SYM_IGNORE  TRUE
   print_input   true
   geom_opt_dmax   80
   pop_mulliken false
   XC_GRID 000075000302
$end

$molecule
0 1
C       1.2639789046     -0.0000032847     0.2586508877
C       0.0000017681     -0.0000008917     -0.5687711656
H       1.2603721487     -0.7639075115     1.0432447768
H       1.2603830244     0.7639042703     1.0432422201
H       2.0994114381     0.0000092943     -0.4313797918
C       -1.2639761294     0.0000022717     0.2586530590
H       -0.0000016009     -0.6501071158     -1.4588438229
H       -0.0000017409     0.6501059713     -1.4588432942
H       -1.2603804389     -0.7639193480     1.0432301430
H       -2.0994159001     -0.0000048186     -0.4313697819
H       -1.2603715342     0.7639218288     1.0432317887
--------------------------------------------------------------

             Standard Nuclear Orientation (Angstroms)
    I     Atom           X                Y                Z
 ----------------------------------------------------------------
    1      C       1.2639789046    -0.0000032847     0.2586508877
    2      C       0.0000017681    -0.0000008917    -0.5687711656
    3      H       1.2603721487    -0.7639075115     1.0432447768
    4      H       1.2603830244     0.7639042703     1.0432422201
    5      H       2.0994114381     0.0000092943    -0.4313797918
    6      C      -1.2639761294     0.0000022717     0.2586530590
    7      H      -0.0000016009    -0.6501071158    -1.4588438229
    8      H      -0.0000017409     0.6501059713    -1.4588432942
    9      H      -1.2603804389    -0.7639193480     1.0432301430
   10      H      -2.0994159001    -0.0000048186    -0.4313697819
   11      H      -1.2603715342     0.7639218288     1.0432317887
 ----------------------------------------------------------------

    7    -119.0423479264      7.46E-06 Convergence criterion met
    6    -119.0891245567      4.47E-06 Convergence criterion met
 Total energy in the final basis set = -119.08912456

                    Orbital Energies (a.u.)
 --------------------------------------------------------------

 Alpha MOs
 -- Occupied --
-10.2756 -10.2686 -10.2686  -0.8863  -0.7811  -0.7083  -0.5394  -0.5243
 -0.4998  -0.4795  -0.4257  -0.4154  -0.3494

                    Cartesian Multipole Moments
 -----------------------------------------------------------------
    Charge (ESU x 10^10)
                 0.0000
    Dipole Moment (Debye)
         X      -0.0000      Y       0.0000      Z      -0.1384
       Tot       0.1384
    Quadrupole Moments (Debye-Ang)
        XX     -22.4410     XY       0.0000     YY     -23.7694
        XZ       0.0000     YZ      -0.0000     ZZ     -19.2686

 Total job time:  34.85s(wall), 97.23s(cpu)
        *  Thank you very much for using Q-Chem.  Have a nice day.  *
