 Q-Chem 5.2 (devel), Q-Chem, Inc., Pleasanton, CA (2019)
 Q-Chem 5.2.2 for Intel X86 EM64T Linux

User input:
--------------------------------------------------------------
$rem
   JOBTYPE  sp
   EXCHANGE   omegaB97X-D
   BASIS   6-311+G(2df,2pd)
   max_scf_cycles   250
   geom_opt_max_cycles   1500
   basis2 6-31G*
   scf_algorithm rca_diis
   SYM_IGNORE  TRUE
   print_input   true
   geom_opt_dmax   80
   pop_mulliken false
   XC_GRID 000075000302
$end

$molecule
0 1
C       1.0510859682     0.7077227770     0.2564001899
C       0.0000048006     -0.0000161789     -0.5903927594
H       1.7349592428     1.3276689438     -0.3350228608
H       1.6486460950     -0.0428910401     0.7683687848
H       0.5938189498     1.3378400758     1.0199389140
C       -1.0510898511     -0.7077120002     0.2564191532
H       0.3689120655     -0.7940404407     -1.2439913850
H       -0.3688903801     0.7939740142     -1.2440383293
H       -1.6485743788     0.0429293756     0.7684377483
H       -0.5938398744     -1.3378843499     1.0199225330
H       -1.7350326981     -1.3275905105     -0.3349969697
--------------------------------------------------------------

             Standard Nuclear Orientation (Angstroms)
    I     Atom           X                Y                Z
 ----------------------------------------------------------------
    1      C       1.0510859682     0.7077227770     0.2564001899
    2      C       0.0000048006    -0.0000161789    -0.5903927594
    3      H       1.7349592428     1.3276689438    -0.3350228608
    4      H       1.6486460950    -0.0428910401     0.7683687848
    5      H       0.5938189498     1.3378400758     1.0199389140
    6      C      -1.0510898511    -0.7077120002     0.2564191532
    7      H       0.3689120655    -0.7940404407    -1.2439913850
    8      H      -0.3688903801     0.7939740142    -1.2440383293
    9      H      -1.6485743788     0.0429293756     0.7684377483
   10      H      -0.5938398744    -1.3378843499     1.0199225330
   11      H      -1.7350326981    -1.3275905105    -0.3349969697
 ----------------------------------------------------------------

    7    -119.0973806019      4.62E-06 Convergence criterion met
    6    -119.1405020173      3.99E-06 Convergence criterion met
 Total energy in the final basis set = -119.14050202

                    Orbital Energies (a.u.)
 --------------------------------------------------------------

 Alpha MOs
 -- Occupied --
-10.2737 -10.2657 -10.2657  -0.8820  -0.7776  -0.6779  -0.5469  -0.5253
 -0.4832  -0.4646  -0.4264  -0.4155  -0.3975

                    Cartesian Multipole Moments
 -----------------------------------------------------------------
    Charge (ESU x 10^10)
                 0.0000
    Dipole Moment (Debye)
         X       0.0000      Y      -0.0000      Z      -0.0576
       Tot       0.0576
    Quadrupole Moments (Debye-Ang)
        XX     -22.2246     XY      -0.1404     YY     -21.2647
        XZ      -0.0000     YZ      -0.0000     ZZ     -21.9158

 Total job time:  40.90s(wall), 113.18s(cpu)
        *  Thank you very much for using Q-Chem.  Have a nice day.  *
