 Q-Chem 5.2 (devel), Q-Chem, Inc., Pleasanton, CA (2019)
 Q-Chem 5.2.2 for Intel X86 EM64T Linux

User input:
--------------------------------------------------------------
$rem
   JOBTYPE  sp
   EXCHANGE   omegaB97X-D
   BASIS   6-311+G(2df,2pd)
   max_scf_cycles   250
   geom_opt_max_cycles   1500
   basis2 6-31G*
   scf_algorithm rca_diis
   SYM_IGNORE  TRUE
   print_input   true
   geom_opt_dmax   80
   pop_mulliken false
   XC_GRID 000075000302
$end

$molecule
0 1
C       1.2531023393     0.1884978642     0.2625304092
C       0.0000003928     -0.0000040551     -0.5841833559
H       1.0222822623     0.1624695800     1.3305710676
H       1.7126760849     1.1544172639     0.0492622597
H       1.9950559455     -0.5845824695     0.0601047844
C       -1.2531023988     -0.1884940461     0.2625317235
H       0.0945165993     -0.8688676403     -1.2398508393
H       -0.0945148676     0.8688498396     -1.2398634907
H       -1.7126932693     -1.1544030310     0.0492520053
H       -1.9950441961     0.5846007042     0.0601179883
H       -1.0222789528     -0.1624833440     1.3305724666
--------------------------------------------------------------

             Standard Nuclear Orientation (Angstroms)
    I     Atom           X                Y                Z
 ----------------------------------------------------------------
    1      C       1.2531023393     0.1884978642     0.2625304092
    2      C       0.0000003928    -0.0000040551    -0.5841833559
    3      H       1.0222822623     0.1624695800     1.3305710676
    4      H       1.7126760849     1.1544172639     0.0492622597
    5      H       1.9950559455    -0.5845824695     0.0601047844
    6      C      -1.2531023988    -0.1884940461     0.2625317235
    7      H       0.0945165993    -0.8688676403    -1.2398508393
    8      H      -0.0945148676     0.8688498396    -1.2398634907
    9      H      -1.7126932693    -1.1544030310     0.0492520053
   10      H      -1.9950441961     0.5846007042     0.0601179883
   11      H      -1.0222789528    -0.1624833440     1.3305724666
 ----------------------------------------------------------------

    7    -119.0907157034      4.17E-06 Convergence criterion met
    6    -119.1341446174      3.95E-06 Convergence criterion met
 Total energy in the final basis set = -119.13414462

                    Orbital Energies (a.u.)
 --------------------------------------------------------------

 Alpha MOs
 -- Occupied --
-10.2713 -10.2631 -10.2631  -0.8809  -0.7762  -0.6776  -0.5444  -0.5277
 -0.4754  -0.4707  -0.4225  -0.4113  -0.3976

                    Cartesian Multipole Moments
 -----------------------------------------------------------------
    Charge (ESU x 10^10)
                -0.0000
    Dipole Moment (Debye)
         X      -0.0000      Y      -0.0000      Z      -0.0973
       Tot       0.0973
    Quadrupole Moments (Debye-Ang)
        XX     -22.4288     XY      -0.1338     YY     -21.2104
        XZ       0.0000     YZ      -0.0000     ZZ     -21.8136

 Total job time:  34.81s(wall), 96.89s(cpu)
        *  Thank you very much for using Q-Chem.  Have a nice day.  *
