 Q-Chem 5.2 (devel), Q-Chem, Inc., Pleasanton, CA (2019)
 Q-Chem 5.2.2 for Intel X86 EM64T Linux

User input:
--------------------------------------------------------------
$rem
   JOBTYPE  sp
   EXCHANGE   omegaB97X-D
   BASIS   6-311+G(2df,2pd)
   max_scf_cycles   250
   geom_opt_max_cycles   1500
   basis2 6-31G*
   scf_algorithm rca_diis
   SYM_IGNORE  TRUE
   print_input   true
   geom_opt_dmax   80
   pop_mulliken false
   XC_GRID 000075000302
$end

$molecule
0 1
C       1.2585239193     0.2377770656     0.0219589508
C       -0.0000030200     -0.6214417133     0.0461225499
H       1.8433098843     0.3069687812     -0.8925929282
H       1.8824619171     -0.2407903314     0.7854638767
H       1.0523612559     1.2511865200     0.3678653297
C       -1.2585229321     0.2377862903     0.0219516518
H       -0.0000076632     -1.4915703532     0.7083931575
H       -0.0000013102     -0.9973273100     -0.9788225334
H       -1.8433373549     0.3069170211     -0.8925874600
H       -1.0523433524     1.2512176386     0.3677826859
H       -1.8824414045     -0.2407229429     0.7855097382
--------------------------------------------------------------

             Standard Nuclear Orientation (Angstroms)
    I     Atom           X                Y                Z
 ----------------------------------------------------------------
    1      C       1.2585239193     0.2377770656     0.0219589508
    2      C      -0.0000030200    -0.6214417133     0.0461225499
    3      H       1.8433098843     0.3069687812    -0.8925929282
    4      H       1.8824619171    -0.2407903314     0.7854638767
    5      H       1.0523612559     1.2511865200     0.3678653297
    6      C      -1.2585229321     0.2377862903     0.0219516518
    7      H      -0.0000076632    -1.4915703532     0.7083931575
    8      H      -0.0000013102    -0.9973273100    -0.9788225334
    9      H      -1.8433373549     0.3069170211    -0.8925874600
   10      H      -1.0523433524     1.2512176386     0.3677826859
   11      H      -1.8824414045    -0.2407229429     0.7855097382
 ----------------------------------------------------------------

    7    -119.0741701424      4.75E-06 Convergence criterion met
    5    -119.1181804681      9.80E-06 Convergence criterion met
 Total energy in the final basis set = -119.11818047

                    Orbital Energies (a.u.)
 --------------------------------------------------------------

 Alpha MOs
 -- Occupied --
-10.2727 -10.2631 -10.2631  -0.8838  -0.7766  -0.6777  -0.5466  -0.5275
 -0.4889  -0.4631  -0.4346  -0.4014  -0.3826

                    Cartesian Multipole Moments
 -----------------------------------------------------------------
    Charge (ESU x 10^10)
                -0.0000
    Dipole Moment (Debye)
         X       0.0000      Y      -0.1427      Z      -0.0640
       Tot       0.1564
    Quadrupole Moments (Debye-Ang)
        XX     -22.6382     XY       0.0000     YY     -21.6331
        XZ      -0.0000     YZ      -0.5344     ZZ     -21.3122

 Total job time:  37.66s(wall), 103.56s(cpu)
        *  Thank you very much for using Q-Chem.  Have a nice day.  *
