 Q-Chem 5.2 (devel), Q-Chem, Inc., Pleasanton, CA (2019)
 Q-Chem 5.2.2 for Intel X86 EM64T Linux

User input:
--------------------------------------------------------------
$rem
   JOBTYPE  sp
   EXCHANGE   omegaB97X-D
   BASIS   6-311+G(2df,2pd)
   max_scf_cycles   250
   geom_opt_max_cycles   1500
   basis2 6-31G*
   scf_algorithm rca_diis
   SYM_IGNORE  TRUE
   print_input   true
   geom_opt_dmax   80
   pop_mulliken false
   XC_GRID 000075000302
$end

$molecule
0 1
C       1.2251265347     -0.3237747076     0.2659206301
C       0.0000009172     0.0000074800     -0.5808093951
H       1.9724068335     -0.8334182073     -0.3421541387
H       0.9791237118     -0.9810147941     1.1049470201
H       1.6855385021     0.5790860887     0.6683997186
C       -1.2251265346     0.3237699859     0.2659256571
H       -0.1635444418     -0.8587498981     -1.2362060451
H       0.1635472565     0.8587806456     -1.2361856731
H       -0.9791380078     0.9810354866     1.1049357096
H       -1.6855069317     -0.5790981631     0.6684244627
H       -1.9724279004     0.8333767494     -0.3421529273
--------------------------------------------------------------

             Standard Nuclear Orientation (Angstroms)
    I     Atom           X                Y                Z
 ----------------------------------------------------------------
    1      C       1.2251265347    -0.3237747076     0.2659206301
    2      C       0.0000009172     0.0000074800    -0.5808093951
    3      H       1.9724068335    -0.8334182073    -0.3421541387
    4      H       0.9791237118    -0.9810147941     1.1049470201
    5      H       1.6855385021     0.5790860887     0.6683997186
    6      C      -1.2251265346     0.3237699859     0.2659256571
    7      H      -0.1635444418    -0.8587498981    -1.2362060451
    8      H       0.1635472565     0.8587806456    -1.2361856731
    9      H      -0.9791380078     0.9810354866     1.1049357096
   10      H      -1.6855069317    -0.5790981631     0.6684244627
   11      H      -1.9724279004     0.8333767494    -0.3421529273
 ----------------------------------------------------------------

    7    -119.0999532565      4.57E-06 Convergence criterion met
    6    -119.1429704524      3.82E-06 Convergence criterion met
 Total energy in the final basis set = -119.14297045

                    Orbital Energies (a.u.)
 --------------------------------------------------------------

 Alpha MOs
 -- Occupied --
-10.2735 -10.2646 -10.2646  -0.8809  -0.7774  -0.6772  -0.5454  -0.5230
 -0.4838  -0.4664  -0.4192  -0.4150  -0.4043

                    Cartesian Multipole Moments
 -----------------------------------------------------------------
    Charge (ESU x 10^10)
                 0.0000
    Dipole Moment (Debye)
         X      -0.0000      Y       0.0000      Z      -0.0943
       Tot       0.0943
    Quadrupole Moments (Debye-Ang)
        XX     -22.3101     XY       0.1087     YY     -21.2954
        XZ      -0.0000     YZ       0.0000     ZZ     -21.7859

 Total job time:  34.90s(wall), 96.98s(cpu)
        *  Thank you very much for using Q-Chem.  Have a nice day.  *
