 Q-Chem 5.2 (devel), Q-Chem, Inc., Pleasanton, CA (2019)
 Q-Chem 5.2.2 for Intel X86 EM64T Linux

User input:
--------------------------------------------------------------
$rem
   JOBTYPE  sp
   EXCHANGE   omegaB97X-D
   BASIS   6-311+G(2df,2pd)
   max_scf_cycles   250
   geom_opt_max_cycles   1500
   basis2 6-31G*
   scf_algorithm rca_diis
   SYM_IGNORE  TRUE
   print_input   true
   geom_opt_dmax   80
   pop_mulliken false
   XC_GRID 000075000302
$end

$molecule
0 1
C       1.2645693521     0.1539612673     0.1781894829
C       -0.0000010220     -0.4911883018     -0.3762199046
H       2.1878506199     -0.4007002514     0.0133861400
H       1.1160663196     0.2368623799     1.2590239050
H       1.4029199891     1.1629301321     -0.2116592501
C       -1.2645682769     0.1539691318     0.1781867162
H       -0.0000041913     -1.5829986940     -0.3234889694
H       0.0000009415     -0.2319572725     -1.4371108388
H       -2.1878443667     -0.4007112565     0.0134154405
H       -1.4029371568     1.1629228322     -0.2116942503
H       -1.1160522691     0.2369106988     1.2590165477
--------------------------------------------------------------

             Standard Nuclear Orientation (Angstroms)
    I     Atom           X                Y                Z
 ----------------------------------------------------------------
    1      C       1.2645693521     0.1539612673     0.1781894829
    2      C      -0.0000010220    -0.4911883018    -0.3762199046
    3      H       2.1878506199    -0.4007002514     0.0133861400
    4      H       1.1160663196     0.2368623799     1.2590239050
    5      H       1.4029199891     1.1629301321    -0.2116592501
    6      C      -1.2645682769     0.1539691318     0.1781867162
    7      H      -0.0000041913    -1.5829986940    -0.3234889694
    8      H       0.0000009415    -0.2319572725    -1.4371108388
    9      H      -2.1878443667    -0.4007112565     0.0134154405
   10      H      -1.4029371568     1.1629228322    -0.2116942503
   11      H      -1.1160522691     0.2369106988     1.2590165477
 ----------------------------------------------------------------

    7    -119.0960653651      4.49E-06 Convergence criterion met
    6    -119.1393072609      4.12E-06 Convergence criterion met
 Total energy in the final basis set = -119.13930726

                    Orbital Energies (a.u.)
 --------------------------------------------------------------

 Alpha MOs
 -- Occupied --
-10.2737 -10.2658 -10.2658  -0.8831  -0.7765  -0.6783  -0.5477  -0.5302
 -0.4765  -0.4612  -0.4276  -0.4190  -0.3978

                    Cartesian Multipole Moments
 -----------------------------------------------------------------
    Charge (ESU x 10^10)
                -0.0000
    Dipole Moment (Debye)
         X      -0.0000      Y      -0.0255      Z      -0.0922
       Tot       0.0957
    Quadrupole Moments (Debye-Ang)
        XX     -21.8998     XY       0.0000     YY     -21.4643
        XZ      -0.0000     YZ      -0.4089     ZZ     -22.0212

 Total job time:  34.87s(wall), 96.94s(cpu)
        *  Thank you very much for using Q-Chem.  Have a nice day.  *
