 Q-Chem 5.2 (devel), Q-Chem, Inc., Pleasanton, CA (2019)
 Q-Chem 5.2.2 for Intel X86 EM64T Linux

User input:
--------------------------------------------------------------
$rem
   JOBTYPE  sp
   EXCHANGE   omegaB97X-D
   BASIS   6-311+G(2df,2pd)
   max_scf_cycles   250
   geom_opt_max_cycles   1500
   basis2 6-31G*
   scf_algorithm rca_diis
   SYM_IGNORE  TRUE
   print_input   true
   geom_opt_dmax   80
   pop_mulliken false
   XC_GRID 000075000302
$end

$molecule
0 1
C       1.3316449574     0.0000002832     0.1590373137
C       0.0407545771     0.0000000519     -0.5894012924
H       1.2112964435     -0.8512551755     0.8341631747
H       1.2112970820     0.8512553127     0.8341638087
H       2.3375309436     -0.0000000587     -0.2548864156
C       -1.1974158739     -0.0000001454     0.3528567110
H       -0.1109391171     -0.8698061964     -1.2329715967
H       -0.1109400312     0.8698060493     -1.2329717748
H       -1.3813971352     -0.8902716930     0.9553569945
H       -1.9504357578     0.0000005894     -0.4396588869
H       -1.3813961491     0.8902716487     0.9553569828
--------------------------------------------------------------

             Standard Nuclear Orientation (Angstroms)
    I     Atom           X                Y                Z
 ----------------------------------------------------------------
    1      C       1.3316449574     0.0000002832     0.1590373137
    2      C       0.0407545771     0.0000000519    -0.5894012924
    3      H       1.2112964435    -0.8512551755     0.8341631747
    4      H       1.2112970820     0.8512553127     0.8341638087
    5      H       2.3375309436    -0.0000000587    -0.2548864156
    6      C      -1.1974158739    -0.0000001454     0.3528567110
    7      H      -0.1109391171    -0.8698061964    -1.2329715967
    8      H      -0.1109400312     0.8698060493    -1.2329717748
    9      H      -1.3813971352    -0.8902716930     0.9553569945
   10      H      -1.9504357578     0.0000005894    -0.4396588869
   11      H      -1.3813961491     0.8902716487     0.9553569828
 ----------------------------------------------------------------

    7    -119.0832326451      4.71E-06 Convergence criterion met
    6    -119.1268502606      4.17E-06 Convergence criterion met
 Total energy in the final basis set = -119.12685026

                    Orbital Energies (a.u.)
 --------------------------------------------------------------

 Alpha MOs
 -- Occupied --
-10.2781 -10.2678 -10.2627  -0.8860  -0.7797  -0.6784  -0.5467  -0.5313
 -0.4856  -0.4624  -0.4166  -0.4101  -0.4041

                    Cartesian Multipole Moments
 -----------------------------------------------------------------
    Charge (ESU x 10^10)
                -0.0000
    Dipole Moment (Debye)
         X      -0.1065      Y      -0.0000      Z      -0.0813
       Tot       0.1340
    Quadrupole Moments (Debye-Ang)
        XX     -22.0772     XY      -0.0000     YY     -21.4783
        XZ      -0.0851     YZ       0.0000     ZZ     -21.9303

 Total job time:  37.03s(wall), 102.75s(cpu)
        *  Thank you very much for using Q-Chem.  Have a nice day.  *
