 Q-Chem 5.2 (devel), Q-Chem, Inc., Pleasanton, CA (2019)
 Q-Chem 5.2.2 for Intel X86 EM64T Linux

User input:
--------------------------------------------------------------
$rem
   JOBTYPE  sp
   EXCHANGE   omegaB97X-D
   BASIS   6-311+G(2df,2pd)
   max_scf_cycles   250
   geom_opt_max_cycles   1500
   basis2 6-31G*
   scf_algorithm rca_diis
   SYM_IGNORE  TRUE
   print_input   true
   geom_opt_dmax   80
   pop_mulliken false
   XC_GRID 000075000302
$end

$molecule
0 1
C       1.2604852504     0.0000013765     0.2588916687
C       -0.0000008556     0.0000003964     -0.6095877186
H       1.3188281731     -0.9292537327     0.8261451180
H       1.3188227960     0.9292557585     0.8261464307
H       2.1922035685     -0.0000047074     -0.3143234656
C       -1.2604870296     -0.0000009820     0.2588899608
H       0.0000007984     -0.9597748844     -1.1215463503
H       0.0000006244     0.9597754802     -1.1215467643
H       -1.3188234865     -0.9292503146     0.8261534462
H       -2.1922020243     0.0000035655     -0.3143300143
H       -1.3188278752     0.9292487100     0.8261527076
--------------------------------------------------------------

             Standard Nuclear Orientation (Angstroms)
    I     Atom           X                Y                Z
 ----------------------------------------------------------------
    1      C       1.2604852504     0.0000013765     0.2588916687
    2      C      -0.0000008556     0.0000003964    -0.6095877186
    3      H       1.3188281731    -0.9292537327     0.8261451180
    4      H       1.3188227960     0.9292557585     0.8261464307
    5      H       2.1922035685    -0.0000047074    -0.3143234656
    6      C      -1.2604870296    -0.0000009820     0.2588899608
    7      H       0.0000007984    -0.9597748844    -1.1215463503
    8      H       0.0000006244     0.9597754802    -1.1215467643
    9      H      -1.3188234865    -0.9292503146     0.8261534462
   10      H      -2.1922020243     0.0000035655    -0.3143300143
   11      H      -1.3188278752     0.9292487100     0.8261527076
 ----------------------------------------------------------------

    7    -119.0890871352      6.01E-06 Convergence criterion met
    5    -119.1326121295      9.41E-06 Convergence criterion met
 Total energy in the final basis set = -119.13261213

                    Orbital Energies (a.u.)
 --------------------------------------------------------------

 Alpha MOs
 -- Occupied --
-10.2755 -10.2642 -10.2642  -0.8832  -0.7771  -0.6720  -0.5692  -0.5139
 -0.4797  -0.4636  -0.4270  -0.4180  -0.3913

                    Cartesian Multipole Moments
 -----------------------------------------------------------------
    Charge (ESU x 10^10)
                -0.0000
    Dipole Moment (Debye)
         X       0.0000      Y      -0.0000      Z      -0.0950
       Tot       0.0950
    Quadrupole Moments (Debye-Ang)
        XX     -22.0975     XY      -0.0000     YY     -20.4522
        XZ      -0.0000     YZ       0.0000     ZZ     -23.0540

 Total job time:  31.56s(wall), 87.63s(cpu)
        *  Thank you very much for using Q-Chem.  Have a nice day.  *
