 Q-Chem 5.2 (devel), Q-Chem, Inc., Pleasanton, CA (2019)
 Q-Chem 5.2.2 for Intel X86 EM64T Linux

User input:
--------------------------------------------------------------
$rem
   JOBTYPE  sp
   EXCHANGE   omegaB97X-D
   BASIS   6-311+G(2df,2pd)
   max_scf_cycles   250
   geom_opt_max_cycles   1500
   basis2 6-31G*
   scf_algorithm rca_diis
   SYM_IGNORE  TRUE
   print_input   true
   geom_opt_dmax   80
   pop_mulliken false
   XC_GRID 000075000302
$end

$molecule
0 1
C       1.1358401528     -0.5617449874     0.2639412559
C       0.0000025663     0.0000126636     -0.5828289404
H       2.0519116667     -0.0189663016     0.0382491390
H       1.3237787707     -1.6226880863     0.0671301641
H       0.9383865782     -0.4440055570     1.3299051965
C       -1.1358424126     0.5617380064     0.2639530445
H       -0.2889204879     -0.8257597096     -1.2373357010
H       0.2889308324     0.8258111630     -1.2373014163
H       -1.3238464796     1.6226633299     0.0671132187
H       -0.9383519893     0.4440384018     1.3299146222
H       -2.0518892582     0.0189017432     0.0383044357
--------------------------------------------------------------

             Standard Nuclear Orientation (Angstroms)
    I     Atom           X                Y                Z
 ----------------------------------------------------------------
    1      C       1.1358401528    -0.5617449874     0.2639412559
    2      C       0.0000025663     0.0000126636    -0.5828289404
    3      H       2.0519116667    -0.0189663016     0.0382491390
    4      H       1.3237787707    -1.6226880863     0.0671301641
    5      H       0.9383865782    -0.4440055570     1.3299051965
    6      C      -1.1358424126     0.5617380064     0.2639530445
    7      H      -0.2889204879    -0.8257597096    -1.2373357010
    8      H       0.2889308324     0.8258111630    -1.2373014163
    9      H      -1.3238464796     1.6226633299     0.0671132187
   10      H      -0.9383519893     0.4440384018     1.3299146222
   11      H      -2.0518892582     0.0189017432     0.0383044357
 ----------------------------------------------------------------

    7    -119.0879917444      4.25E-06 Convergence criterion met
    6    -119.1315143192      3.97E-06 Convergence criterion met
 Total energy in the final basis set = -119.13151432

                    Orbital Energies (a.u.)
 --------------------------------------------------------------

 Alpha MOs
 -- Occupied --
-10.2713 -10.2632 -10.2632  -0.8812  -0.7766  -0.6776  -0.5445  -0.5280
 -0.4773  -0.4703  -0.4224  -0.4160  -0.3907

                    Cartesian Multipole Moments
 -----------------------------------------------------------------
    Charge (ESU x 10^10)
                -0.0000
    Dipole Moment (Debye)
         X       0.0000      Y      -0.0000      Z      -0.0928
       Tot       0.0928
    Quadrupole Moments (Debye-Ang)
        XX     -22.4263     XY       0.2820     YY     -21.2245
        XZ       0.0000     YZ       0.0000     ZZ     -21.8169

 Total job time:  39.70s(wall), 110.32s(cpu)
        *  Thank you very much for using Q-Chem.  Have a nice day.  *
