 Q-Chem 5.2 (devel), Q-Chem, Inc., Pleasanton, CA (2019)
 Q-Chem 5.2.2 for Intel X86 EM64T Linux

User input:
--------------------------------------------------------------
$rem
   JOBTYPE  sp
   EXCHANGE   omegaB97X-D
   BASIS   6-311+G(2df,2pd)
   max_scf_cycles   250
   geom_opt_max_cycles   1500
   basis2 6-31G*
   scf_algorithm rca_diis
   SYM_IGNORE  TRUE
   print_input   true
   geom_opt_dmax   80
   pop_mulliken false
   XC_GRID 000075000302
$end

$molecule
0 1
C       1.2710567310     0.0000004483     0.2431074442
C       -0.0000000412     0.0000004942     -0.5996818974
H       1.3067841323     -0.9014546665     0.9064893685
H       1.3067841605     0.9014539509     0.9064883584
H       2.1159853456     0.0000003135     -0.3376621597
C       -1.2710569991     0.0000005199     0.2431071760
H       -0.0000000165     -0.8653424960     -1.2480602093
H       -0.0000000479     0.8653420231     -1.2480592832
H       -1.3067844427     -0.9014552263     0.9064896379
H       -2.1159844574     0.0000010596     -0.3376617333
H       -1.3067844251     0.9014542453     0.9064883168
--------------------------------------------------------------

             Standard Nuclear Orientation (Angstroms)
    I     Atom           X                Y                Z
 ----------------------------------------------------------------
    1      C       1.2710567310     0.0000004483     0.2431074442
    2      C      -0.0000000412     0.0000004942    -0.5996818974
    3      H       1.3067841323    -0.9014546665     0.9064893685
    4      H       1.3067841605     0.9014539509     0.9064883584
    5      H       2.1159853456     0.0000003135    -0.3376621597
    6      C      -1.2710569991     0.0000005199     0.2431071760
    7      H      -0.0000000165    -0.8653424960    -1.2480602093
    8      H      -0.0000000479     0.8653420231    -1.2480592832
    9      H      -1.3067844427    -0.9014552263     0.9064896379
   10      H      -2.1159844574     0.0000010596    -0.3376617333
   11      H      -1.3067844251     0.9014542453     0.9064883168
 ----------------------------------------------------------------

    7    -119.0948532917      4.96E-06 Convergence criterion met
    5    -119.1383604961      9.84E-06 Convergence criterion met
 Total energy in the final basis set = -119.13836050

                    Orbital Energies (a.u.)
 --------------------------------------------------------------

 Alpha MOs
 -- Occupied --
-10.2721 -10.2633 -10.2633  -0.8816  -0.7799  -0.6789  -0.5435  -0.5339
 -0.4817  -0.4564  -0.4254  -0.4177  -0.4058

                    Cartesian Multipole Moments
 -----------------------------------------------------------------
    Charge (ESU x 10^10)
                 0.0000
    Dipole Moment (Debye)
         X      -0.0000      Y       0.0000      Z      -0.1936
       Tot       0.1936
    Quadrupole Moments (Debye-Ang)
        XX     -21.9767     XY      -0.0000     YY     -21.3371
        XZ       0.0000     YZ      -0.0000     ZZ     -21.8720

 Total job time:  31.67s(wall), 87.87s(cpu)
        *  Thank you very much for using Q-Chem.  Have a nice day.  *
