 Q-Chem 5.2 (devel), Q-Chem, Inc., Pleasanton, CA (2019)
 Q-Chem 5.2.2 for Intel X86 EM64T Linux

User input:
--------------------------------------------------------------
$rem
   JOBTYPE  sp
   EXCHANGE   omegaB97X-D
   BASIS   6-311+G(2df,2pd)
   max_scf_cycles   250
   geom_opt_max_cycles   1500
   basis2 6-31G*
   scf_algorithm rca_diis
   SYM_IGNORE  TRUE
   print_input   true
   geom_opt_dmax   80
   pop_mulliken false
   XC_GRID 000075000302
$end

$molecule
0 1
C       1.2434489622     -0.0000016838     0.2811229173
C       -0.0240949161     -0.0000008107     -0.5856330633
H       1.3057015992     -0.9530188670     0.8055476597
H       1.3057080679     0.9530164298     0.8055457682
H       2.1874167277     0.0000059385     -0.2729657626
C       -1.2908634729     0.0000008385     0.2408471389
H       0.0190027708     -0.8734461841     -1.2406085671
H       0.0190028105     0.8734450725     -1.2406078016
H       -1.3140026310     -0.7934229457     0.9939513835
H       -2.1373211942     -0.0000013874     -0.4401063741
H       -1.3139987846     0.7934242655     0.9939517199
--------------------------------------------------------------

             Standard Nuclear Orientation (Angstroms)
    I     Atom           X                Y                Z
 ----------------------------------------------------------------
    1      C       1.2434489622    -0.0000016838     0.2811229173
    2      C      -0.0240949161    -0.0000008107    -0.5856330633
    3      H       1.3057015992    -0.9530188670     0.8055476597
    4      H       1.3057080679     0.9530164298     0.8055457682
    5      H       2.1874167277     0.0000059385    -0.2729657626
    6      C      -1.2908634729     0.0000008385     0.2408471389
    7      H       0.0190027708    -0.8734461841    -1.2406085671
    8      H       0.0190028105     0.8734450725    -1.2406078016
    9      H      -1.3140026310    -0.7934229457     0.9939513835
   10      H      -2.1373211942    -0.0000013874    -0.4401063741
   11      H      -1.3139987846     0.7934242655     0.9939517199
 ----------------------------------------------------------------

    7    -119.0886614931      5.44E-06 Convergence criterion met
    6    -119.1323534044      3.95E-06 Convergence criterion met
 Total energy in the final basis set = -119.13235340

                    Orbital Energies (a.u.)
 --------------------------------------------------------------

 Alpha MOs
 -- Occupied --
-10.2742 -10.2655 -10.2654  -0.8819  -0.7788  -0.6794  -0.5487  -0.5294
 -0.4864  -0.4630  -0.4192  -0.4079  -0.4010

                    Cartesian Multipole Moments
 -----------------------------------------------------------------
    Charge (ESU x 10^10)
                 0.0000
    Dipole Moment (Debye)
         X       0.0768      Y       0.0000      Z      -0.0832
       Tot       0.1132
    Quadrupole Moments (Debye-Ang)
        XX     -22.1572     XY       0.0000     YY     -21.4441
        XZ      -0.0734     YZ      -0.0000     ZZ     -21.8367

 Total job time:  34.38s(wall), 96.09s(cpu)
        *  Thank you very much for using Q-Chem.  Have a nice day.  *
