 Q-Chem 5.2 (devel), Q-Chem, Inc., Pleasanton, CA (2019)
 Q-Chem 5.2.2 for Intel X86 EM64T Linux

User input:
--------------------------------------------------------------
$rem
   JOBTYPE  sp
   EXCHANGE   omegaB97X-D
   BASIS   6-311+G(2df,2pd)
   max_scf_cycles   250
   geom_opt_max_cycles   1500
   basis2 6-31G*
   scf_algorithm rca_diis
   SYM_IGNORE  TRUE
   print_input   true
   geom_opt_dmax   80
   pop_mulliken false
   XC_GRID 000075000302
$end

$molecule
0 1
C       1.2027299127     -0.0000000119     0.1385085122
C       -0.2381241099     -0.0000000006     -0.5533406717
H       1.3418104286     -0.7957282524     0.8836151835
H       1.3418104026     0.7957282233     0.8836151930
H       2.1595464122     0.0000000111     -0.3903546864
C       -1.3549026956     -0.0000000226     0.3710911945
H       0.1656544873     -0.7904512003     -1.1904501493
H       0.1656543486     0.7904511772     -1.1904502845
H       -1.3291096824     -0.9509314009     0.8924401063
H       -2.1259597898     0.0000007461     -0.3960696104
H       -1.3291097749     0.9509313970     0.8924402317
--------------------------------------------------------------

             Standard Nuclear Orientation (Angstroms)
    I     Atom           X                Y                Z
 ----------------------------------------------------------------
    1      C       1.2027299127    -0.0000000119     0.1385085122
    2      C      -0.2381241099    -0.0000000006    -0.5533406717
    3      H       1.3418104286    -0.7957282524     0.8836151835
    4      H       1.3418104026     0.7957282233     0.8836151930
    5      H       2.1595464122     0.0000000111    -0.3903546864
    6      C      -1.3549026956    -0.0000000226     0.3710911945
    7      H       0.1656544873    -0.7904512003    -1.1904501493
    8      H       0.1656543486     0.7904511772    -1.1904502845
    9      H      -1.3291096824    -0.9509314009     0.8924401063
   10      H      -2.1259597898     0.0000007461    -0.3960696104
   11      H      -1.3291097749     0.9509313970     0.8924402317
 ----------------------------------------------------------------

    7    -119.0279460153      7.47E-06 Convergence criterion met
    5    -119.0739676639      9.09E-06 Convergence criterion met
 Total energy in the final basis set = -119.07396766

                    Orbital Energies (a.u.)
 --------------------------------------------------------------

 Alpha MOs
 -- Occupied --
-10.2764 -10.2752 -10.2626  -0.8949  -0.7902  -0.6863  -0.5522  -0.5262
 -0.5038  -0.4649  -0.4368  -0.3809  -0.3748

                    Cartesian Multipole Moments
 -----------------------------------------------------------------
    Charge (ESU x 10^10)
                -0.0000
    Dipole Moment (Debye)
         X      -0.0443      Y       0.0000      Z      -0.0166
       Tot       0.0473
    Quadrupole Moments (Debye-Ang)
        XX     -22.0803     XY      -0.0000     YY     -21.7910
        XZ      -0.5134     YZ      -0.0000     ZZ     -22.1138

 Total job time:  33.82s(wall), 93.18s(cpu)
        *  Thank you very much for using Q-Chem.  Have a nice day.  *
