 Q-Chem 5.2 (devel), Q-Chem, Inc., Pleasanton, CA (2019)
 Q-Chem 5.2.2 for Intel X86 EM64T Linux

User input:
--------------------------------------------------------------
$rem
   JOBTYPE  sp
   EXCHANGE   omegaB97X-D
   BASIS   6-311+G(2df,2pd)
   max_scf_cycles   250
   geom_opt_max_cycles   1500
   basis2 6-31G*
   scf_algorithm rca_diis
   SYM_IGNORE  TRUE
   print_input   true
   geom_opt_dmax   80
   pop_mulliken false
   XC_GRID 000075000302
$end

$molecule
0 1
C       1.1816046628     0.4577694894     0.2665868488
C       0.0000021503     -0.0000104318     -0.5801575388
H       1.1064342962     1.5125676044     0.5493936740
H       2.1037846501     0.3347931878     -0.2996368288
H       1.2741268937     -0.1316717845     1.1793448043
C       -1.1816052633     -0.4577619823     0.2665951274
H       0.2334564474     -0.8428148702     -1.2350907020
H       -0.2334474253     0.8427713288     -1.2351207741
H       -2.1037888569     -0.3347286965     -0.2996115275
H       -1.2740909170     0.1316588500     1.1793699290
H       -1.1064766986     -1.5125720292     0.5493720067
--------------------------------------------------------------

             Standard Nuclear Orientation (Angstroms)
    I     Atom           X                Y                Z
 ----------------------------------------------------------------
    1      C       1.1816046628     0.4577694894     0.2665868488
    2      C       0.0000021503    -0.0000104318    -0.5801575388
    3      H       1.1064342962     1.5125676044     0.5493936740
    4      H       2.1037846501     0.3347931878    -0.2996368288
    5      H       1.2741268937    -0.1316717845     1.1793448043
    6      C      -1.1816052633    -0.4577619823     0.2665951274
    7      H       0.2334564474    -0.8428148702    -1.2350907020
    8      H      -0.2334474253     0.8427713288    -1.2351207741
    9      H      -2.1037888569    -0.3347286965    -0.2996115275
   10      H      -1.2740909170     0.1316588500     1.1793699290
   11      H      -1.1064766986    -1.5125720292     0.5493720067
 ----------------------------------------------------------------

    7    -119.0973665096      4.54E-06 Convergence criterion met
    6    -119.1404298810      3.85E-06 Convergence criterion met
 Total energy in the final basis set = -119.14042988

                    Orbital Energies (a.u.)
 --------------------------------------------------------------

 Alpha MOs
 -- Occupied --
-10.2731 -10.2643 -10.2643  -0.8810  -0.7773  -0.6772  -0.5448  -0.5238
 -0.4831  -0.4679  -0.4197  -0.4177  -0.3982

                    Cartesian Multipole Moments
 -----------------------------------------------------------------
    Charge (ESU x 10^10)
                -0.0000
    Dipole Moment (Debye)
         X      -0.0000      Y       0.0000      Z      -0.1010
       Tot       0.1010
    Quadrupole Moments (Debye-Ang)
        XX     -22.3222     XY      -0.1748     YY     -21.2512
        XZ       0.0000     YZ      -0.0000     ZZ     -21.8212

 Total job time:  41.13s(wall), 114.45s(cpu)
        *  Thank you very much for using Q-Chem.  Have a nice day.  *
