 Q-Chem 5.2 (devel), Q-Chem, Inc., Pleasanton, CA (2019)
 Q-Chem 5.2.2 for Intel X86 EM64T Linux

User input:
--------------------------------------------------------------
$rem
   JOBTYPE  sp
   EXCHANGE   omegaB97X-D
   BASIS   6-311+G(2df,2pd)
   max_scf_cycles   250
   geom_opt_max_cycles   1500
   basis2 6-31G*
   scf_algorithm rca_diis
   SYM_IGNORE  TRUE
   print_input   true
   geom_opt_dmax   80
   pop_mulliken false
   XC_GRID 000075000302
$end

$molecule
0 1
C       1.2636283161     0.1763625249     0.1503263634
C       -0.0000013864     -0.5439814227     -0.3047247066
H       2.2095993816     -0.2425323232     -0.1904159969
H       1.2510642619     0.1230405022     1.2434659359
H       1.2430006176     1.2313631549     -0.1247958227
C       -1.2636270748     0.1763711388     0.1503228373
H       -0.0000049940     -1.6219015155     -0.1227966047
H       0.0000005990     -0.4106271141     -1.3885740013
H       -2.2095990105     -0.2425505903     -0.1903854400
H       -1.2430168841     1.2313606664     -0.1248423429
H       -1.2510438870     0.1230956447     1.2434647973
--------------------------------------------------------------

             Standard Nuclear Orientation (Angstroms)
    I     Atom           X                Y                Z
 ----------------------------------------------------------------
    1      C       1.2636283161     0.1763625249     0.1503263634
    2      C      -0.0000013864    -0.5439814227    -0.3047247066
    3      H       2.2095993816    -0.2425323232    -0.1904159969
    4      H       1.2510642619     0.1230405022     1.2434659359
    5      H       1.2430006176     1.2313631549    -0.1247958227
    6      C      -1.2636270748     0.1763711388     0.1503228373
    7      H      -0.0000049940    -1.6219015155    -0.1227966047
    8      H       0.0000005990    -0.4106271141    -1.3885740013
    9      H      -2.2095990105    -0.2425505903    -0.1903854400
   10      H      -1.2430168841     1.2313606664    -0.1248423429
   11      H      -1.2510438870     0.1230956447     1.2434647973
 ----------------------------------------------------------------

    7    -119.0962055722      4.68E-06 Convergence criterion met
    6    -119.1393808408      4.14E-06 Convergence criterion met
 Total energy in the final basis set = -119.13938084

                    Orbital Energies (a.u.)
 --------------------------------------------------------------

 Alpha MOs
 -- Occupied --
-10.2742 -10.2663 -10.2663  -0.8834  -0.7768  -0.6783  -0.5483  -0.5292
 -0.4768  -0.4618  -0.4279  -0.4248  -0.3922

                    Cartesian Multipole Moments
 -----------------------------------------------------------------
    Charge (ESU x 10^10)
                 0.0000
    Dipole Moment (Debye)
         X      -0.0000      Y      -0.0292      Z      -0.0830
       Tot       0.0880
    Quadrupole Moments (Debye-Ang)
        XX     -21.8820     XY       0.0000     YY     -21.4647
        XZ      -0.0000     YZ      -0.4431     ZZ     -22.0464

 Total job time:  34.52s(wall), 96.17s(cpu)
        *  Thank you very much for using Q-Chem.  Have a nice day.  *
