 Q-Chem 5.2 (devel), Q-Chem, Inc., Pleasanton, CA (2019)
 Q-Chem 5.2.2 for Intel X86 EM64T Linux

User input:
--------------------------------------------------------------
$rem
   JOBTYPE  sp
   EXCHANGE   omegaB97X-D
   BASIS   6-311+G(2df,2pd)
   max_scf_cycles   250
   geom_opt_max_cycles   1500
   basis2 6-31G*
   scf_algorithm rca_diis
   SYM_IGNORE  TRUE
   print_input   true
   geom_opt_dmax   80
   pop_mulliken false
   XC_GRID 000075000302
$end

$molecule
0 1
C       1.2787336990     0.0000013334     0.2102925337
C       -0.0000001235     0.0000014695     -0.6245980767
H       1.3092882703     -0.9426992942     0.9121727297
H       1.3092883956     0.9426971298     0.9121696886
H       2.0182376787     0.0000009849     -0.2936720721
C       -1.2787345029     0.0000015855     0.2102917164
H       -0.0000000503     -0.8482382749     -1.2581432985
H       -0.0000000241     0.8482368340     -1.2581405155
H       -1.3092891951     -0.9427009570     0.9121735456
H       -2.0182350203     0.0000018528     -0.2936707975
H       -1.3092891880     0.9426980023     0.9121695653
--------------------------------------------------------------

             Standard Nuclear Orientation (Angstroms)
    I     Atom           X                Y                Z
 ----------------------------------------------------------------
    1      C       1.2787336990     0.0000013334     0.2102925337
    2      C      -0.0000001235     0.0000014695    -0.6245980767
    3      H       1.3092882703    -0.9426992942     0.9121727297
    4      H       1.3092883956     0.9426971298     0.9121696886
    5      H       2.0182376787     0.0000009849    -0.2936720721
    6      C      -1.2787345029     0.0000015855     0.2102917164
    7      H      -0.0000000503    -0.8482382749    -1.2581432985
    8      H      -0.0000000241     0.8482368340    -1.2581405155
    9      H      -1.3092891951    -0.9427009570     0.9121735456
   10      H      -2.0182350203     0.0000018528    -0.2936707975
   11      H      -1.3092891880     0.9426980023     0.9121695653
 ----------------------------------------------------------------

    7    -119.0137286062      6.71E-06 Convergence criterion met
    5    -119.0612711835      8.56E-06 Convergence criterion met
 Total energy in the final basis set = -119.06127118

                    Orbital Energies (a.u.)
 --------------------------------------------------------------

 Alpha MOs
 -- Occupied --
-10.2684 -10.2595 -10.2595  -0.8857  -0.7926  -0.6871  -0.5525  -0.5410
 -0.4811  -0.4436  -0.4383  -0.4174  -0.4026

                    Cartesian Multipole Moments
 -----------------------------------------------------------------
    Charge (ESU x 10^10)
                 0.0000
    Dipole Moment (Debye)
         X      -0.0000      Y       0.0000      Z      -0.3904
       Tot       0.3904
    Quadrupole Moments (Debye-Ang)
        XX     -21.7499     XY      -0.0000     YY     -21.2775
        XZ       0.0000     YZ      -0.0000     ZZ     -21.8647

 Total job time:  31.67s(wall), 87.83s(cpu)
        *  Thank you very much for using Q-Chem.  Have a nice day.  *
