 Q-Chem 5.2 (devel), Q-Chem, Inc., Pleasanton, CA (2019)
 Q-Chem 5.2.2 for Intel X86 EM64T Linux

User input:
--------------------------------------------------------------
$rem
   JOBTYPE  sp
   EXCHANGE   omegaB97X-D
   BASIS   6-311+G(2df,2pd)
   max_scf_cycles   250
   geom_opt_max_cycles   1500
   basis2 6-31G*
   scf_algorithm rca_diis
   SYM_IGNORE  TRUE
   print_input   true
   geom_opt_dmax   80
   pop_mulliken false
   XC_GRID 000075000302
$end

$molecule
0 1
C       1.1481573749     0.5361462957     0.2648577229
C       0.0000028915     -0.0000123364     -0.5818999871
H       1.2616690803     1.6220440641     0.1797678977
H       2.0805353590     0.0819312091     -0.0659692316
H       1.0186031866     0.2901982039     1.3193030263
C       -1.1481585946     -0.5361379893     0.2648688503
H       0.2751655827     -0.8304025916     -1.2364955661
H       -0.2751532394     0.8303516513     -1.2365307107
H       -2.0805200887     -0.0818626409     -0.0659243178
H       -1.0185724378     -0.2902269329     1.3193188009
H       -1.2617291750     -1.6220282671     0.1797485340
--------------------------------------------------------------

             Standard Nuclear Orientation (Angstroms)
    I     Atom           X                Y                Z
 ----------------------------------------------------------------
    1      C       1.1481573749     0.5361462957     0.2648577229
    2      C       0.0000028915    -0.0000123364    -0.5818999871
    3      H       1.2616690803     1.6220440641     0.1797678977
    4      H       2.0805353590     0.0819312091    -0.0659692316
    5      H       1.0186031866     0.2901982039     1.3193030263
    6      C      -1.1481585946    -0.5361379893     0.2648688503
    7      H       0.2751655827    -0.8304025916    -1.2364955661
    8      H      -0.2751532394     0.8303516513    -1.2365307107
    9      H      -2.0805200887    -0.0818626409    -0.0659243178
   10      H      -1.0185724378    -0.2902269329     1.3193188009
   11      H      -1.2617291750    -1.6220282671     0.1797485340
 ----------------------------------------------------------------

    7    -119.0891827730      4.29E-06 Convergence criterion met
    6    -119.1326304076      3.94E-06 Convergence criterion met
 Total energy in the final basis set = -119.13263041

                    Orbital Energies (a.u.)
 --------------------------------------------------------------

 Alpha MOs
 -- Occupied --
-10.2715 -10.2633 -10.2633  -0.8811  -0.7766  -0.6775  -0.5444  -0.5273
 -0.4781  -0.4702  -0.4222  -0.4156  -0.3917

                    Cartesian Multipole Moments
 -----------------------------------------------------------------
    Charge (ESU x 10^10)
                -0.0000
    Dipole Moment (Debye)
         X       0.0000      Y       0.0000      Z      -0.0975
       Tot       0.0975
    Quadrupole Moments (Debye-Ang)
        XX     -22.4242     XY      -0.2661     YY     -21.2136
        XZ       0.0000     YZ      -0.0000     ZZ     -21.8179

 Total job time:  39.96s(wall), 111.26s(cpu)
        *  Thank you very much for using Q-Chem.  Have a nice day.  *
