 Q-Chem 5.2 (devel), Q-Chem, Inc., Pleasanton, CA (2019)
 Q-Chem 5.2.2 for Intel X86 EM64T Linux

User input:
--------------------------------------------------------------
$rem
   JOBTYPE  sp
   EXCHANGE   omegaB97X-D
   BASIS   6-311+G(2df,2pd)
   max_scf_cycles   250
   geom_opt_max_cycles   1500
   basis2 6-31G*
   scf_algorithm rca_diis
   SYM_IGNORE  TRUE
   print_input   true
   geom_opt_dmax   80
   pop_mulliken false
   XC_GRID 000075000302
$end

$molecule
0 1
C       1.1740781396     -0.0000004274     0.3814219626
C       -0.0541029479     -0.0000000322     -0.5910341165
H       1.4017300198     -0.8902251577     0.9681095779
H       1.4017291560     0.8902250145     0.9681088637
H       1.8734785151     0.0000000937     -0.4599827295
C       -1.3509976527     0.0000000907     0.1252199430
H       0.1463879405     -0.8666819363     -1.2254020037
H       0.1463889656     0.8666819657     -1.2254014772
H       -1.1779211282     -0.8364682976     0.8080034542
H       -2.3828486123     0.0000006847     -0.2160020638
H       -1.1779224561     0.8364686680     0.8080036082
--------------------------------------------------------------

             Standard Nuclear Orientation (Angstroms)
    I     Atom           X                Y                Z
 ----------------------------------------------------------------
    1      C       1.1740781396    -0.0000004274     0.3814219626
    2      C      -0.0541029479    -0.0000000322    -0.5910341165
    3      H       1.4017300198    -0.8902251577     0.9681095779
    4      H       1.4017291560     0.8902250145     0.9681088637
    5      H       1.8734785151     0.0000000937    -0.4599827295
    6      C      -1.3509976527     0.0000000907     0.1252199430
    7      H       0.1463879405    -0.8666819363    -1.2254020037
    8      H       0.1463889656     0.8666819657    -1.2254014772
    9      H      -1.1779211282    -0.8364682976     0.8080034542
   10      H      -2.3828486123     0.0000006847    -0.2160020638
   11      H      -1.1779224561     0.8364686680     0.8080036082
 ----------------------------------------------------------------

    7    -119.0678875938      4.92E-06 Convergence criterion met
    6    -119.1120901541      4.37E-06 Convergence criterion met
 Total energy in the final basis set = -119.11209015

                    Orbital Energies (a.u.)
 --------------------------------------------------------------

 Alpha MOs
 -- Occupied --
-10.2813 -10.2684 -10.2622  -0.8898  -0.7817  -0.6790  -0.5475  -0.5363
 -0.4877  -0.4615  -0.4147  -0.4051  -0.4015

                    Cartesian Multipole Moments
 -----------------------------------------------------------------
    Charge (ESU x 10^10)
                -0.0000
    Dipole Moment (Debye)
         X       0.1253      Y       0.0000      Z      -0.0772
       Tot       0.1472
    Quadrupole Moments (Debye-Ang)
        XX     -22.0183     XY      -0.0000     YY     -21.5628
        XZ       0.0967     YZ      -0.0000     ZZ     -21.9942

 Total job time:  34.79s(wall), 97.19s(cpu)
        *  Thank you very much for using Q-Chem.  Have a nice day.  *
