 Q-Chem 5.2 (devel), Q-Chem, Inc., Pleasanton, CA (2019)
 Q-Chem 5.2.2 for Intel X86 EM64T Linux

User input:
--------------------------------------------------------------
$rem
   JOBTYPE  sp
   EXCHANGE   omegaB97X-D
   BASIS   6-311+G(2df,2pd)
   max_scf_cycles   250
   geom_opt_max_cycles   1500
   basis2 6-31G*
   scf_algorithm rca_diis
   SYM_IGNORE  TRUE
   print_input   true
   geom_opt_dmax   80
   pop_mulliken false
   XC_GRID 000075000302
$end

$molecule
0 1
C       1.2176739762     0.3507701522     0.2663640884
C       0.0000012918     -0.0000078249     -0.5803652163
H       0.9905225909     1.1180625507     1.0123320453
H       2.0121430543     0.7378649102     -0.3712419990
H       1.6089371034     -0.5227164998     0.7889165688
C       -1.2176741604     -0.3507638289     0.2663690425
H       0.1774988734     -0.8560656609     -1.2356644101
H       -0.1774934893     0.8560323571     -1.2356876243
H       -2.0121618105     -0.7378179101     -0.3712394275
H       -1.6089064358     0.5227233017     0.7889437401
H       -0.9905410547     -1.1180808812     1.0123182110
--------------------------------------------------------------

             Standard Nuclear Orientation (Angstroms)
    I     Atom           X                Y                Z
 ----------------------------------------------------------------
    1      C       1.2176739762     0.3507701522     0.2663640884
    2      C       0.0000012918    -0.0000078249    -0.5803652163
    3      H       0.9905225909     1.1180625507     1.0123320453
    4      H       2.0121430543     0.7378649102    -0.3712419990
    5      H       1.6089371034    -0.5227164998     0.7889165688
    6      C      -1.2176741604    -0.3507638289     0.2663690425
    7      H       0.1774988734    -0.8560656609    -1.2356644101
    8      H      -0.1774934893     0.8560323571    -1.2356876243
    9      H      -2.0121618105    -0.7378179101    -0.3712394275
   10      H      -1.6089064358     0.5227233017     0.7889437401
   11      H      -0.9905410547    -1.1180808812     1.0123182110
 ----------------------------------------------------------------

    7    -119.1012726975      4.60E-06 Convergence criterion met
    5    -119.1442356040      9.98E-06 Convergence criterion met
 Total energy in the final basis set = -119.14423560

                    Orbital Energies (a.u.)
 --------------------------------------------------------------

 Alpha MOs
 -- Occupied --
-10.2743 -10.2645 -10.2645  -0.8810  -0.7775  -0.6773  -0.5457  -0.5226
 -0.4847  -0.4651  -0.4192  -0.4161  -0.4050

                    Cartesian Multipole Moments
 -----------------------------------------------------------------
    Charge (ESU x 10^10)
                -0.0000
    Dipole Moment (Debye)
         X      -0.0000      Y      -0.0000      Z      -0.0975
       Tot       0.0975
    Quadrupole Moments (Debye-Ang)
        XX     -22.3001     XY      -0.1072     YY     -21.3083
        XZ      -0.0000     YZ      -0.0000     ZZ     -21.7798

 Total job time:  31.12s(wall), 86.51s(cpu)
        *  Thank you very much for using Q-Chem.  Have a nice day.  *
