 Q-Chem 5.2 (devel), Q-Chem, Inc., Pleasanton, CA (2019)
 Q-Chem 5.2.2 for Intel X86 EM64T Linux

User input:
--------------------------------------------------------------
$rem
   JOBTYPE  sp
   EXCHANGE   omegaB97X-D
   BASIS   6-311+G(2df,2pd)
   max_scf_cycles   250
   geom_opt_max_cycles   1500
   basis2 6-31G*
   scf_algorithm rca_diis
   SYM_IGNORE  TRUE
   print_input   true
   geom_opt_dmax   80
   pop_mulliken false
   XC_GRID 000075000302
$end

$molecule
0 1
C       1.2514719798     0.2471774579     -0.0858989714
C       -0.0000035275     -0.4648276387     0.4136935773
H       1.3035173507     0.7274785068     -1.0587807149
H       1.9485591819     -0.6005529414     -0.0837742195
H       1.6209588604     0.9544757172     0.6573172741
C       -1.2514701279     0.2471833053     -0.0859109253
H       -0.0000087302     -0.9317605168     1.4028431726
H       -0.0000015896     -1.2606195979     -0.3331716040
H       -1.3035221474     0.7273968856     -1.0588365438
H       -1.6209038068     0.9545642119     0.6572524029
H       -1.9485975040     -0.6005147240     -0.0836884292
--------------------------------------------------------------

             Standard Nuclear Orientation (Angstroms)
    I     Atom           X                Y                Z
 ----------------------------------------------------------------
    1      C       1.2514719798     0.2471774579    -0.0858989714
    2      C      -0.0000035275    -0.4648276387     0.4136935773
    3      H       1.3035173507     0.7274785068    -1.0587807149
    4      H       1.9485591819    -0.6005529414    -0.0837742195
    5      H       1.6209588604     0.9544757172     0.6573172741
    6      C      -1.2514701279     0.2471833053    -0.0859109253
    7      H      -0.0000087302    -0.9317605168     1.4028431726
    8      H      -0.0000015896    -1.2606195979    -0.3331716040
    9      H      -1.3035221474     0.7273968856    -1.0588365438
   10      H      -1.6209038068     0.9545642119     0.6572524029
   11      H      -1.9485975040    -0.6005147240    -0.0836884292
 ----------------------------------------------------------------

    7    -119.0670284000      6.62E-06 Convergence criterion met
    5    -119.1110760243      9.06E-06 Convergence criterion met
 Total energy in the final basis set = -119.11107602

                    Orbital Energies (a.u.)
 --------------------------------------------------------------

 Alpha MOs
 -- Occupied --
-10.2762 -10.2625 -10.2625  -0.8858  -0.7785  -0.6761  -0.5478  -0.5118
 -0.5015  -0.4652  -0.4517  -0.3826  -0.3813

                    Cartesian Multipole Moments
 -----------------------------------------------------------------
    Charge (ESU x 10^10)
                -0.0000
    Dipole Moment (Debye)
         X      -0.0000      Y      -0.2099      Z      -0.0254
       Tot       0.2115
    Quadrupole Moments (Debye-Ang)
        XX     -23.3001     XY       0.0000     YY     -21.6448
        XZ      -0.0000     YZ      -0.5760     ZZ     -20.7662

 Total job time:  37.00s(wall), 101.74s(cpu)
        *  Thank you very much for using Q-Chem.  Have a nice day.  *
