 Q-Chem 5.2 (devel), Q-Chem, Inc., Pleasanton, CA (2019)
 Q-Chem 5.2.2 for Intel X86 EM64T Linux

User input:
--------------------------------------------------------------
$rem
   JOBTYPE  sp
   EXCHANGE   omegaB97X-D
   BASIS   6-311+G(2df,2pd)
   max_scf_cycles   250
   geom_opt_max_cycles   1500
   basis2 6-31G*
   scf_algorithm rca_diis
   SYM_IGNORE  TRUE
   print_input   true
   geom_opt_dmax   80
   pop_mulliken false
   XC_GRID 000075000302
$end

$molecule
0 1
C       1.3685392917     0.0000001555     0.2562891083
C       -0.0000000008     -0.0000000055     -0.7217728112
H       1.2967359452     -0.8671712466     0.9179126343
H       1.2967364733     0.8671711347     0.9179132268
H       2.3664605521     -0.0000001381     -0.1855348020
C       -1.3685394304     -0.0000002315     0.2562890328
H       0.0000007663     -0.8754800121     -1.3751714776
H       -0.0000003732     0.8754801338     -1.3751712992
H       -1.2967364592     -0.8671709540     0.9179134570
H       -2.3664608167     0.0000006688     -0.1855345783
H       -1.2967360088     0.8671711610     0.9179125279
--------------------------------------------------------------

             Standard Nuclear Orientation (Angstroms)
    I     Atom           X                Y                Z
 ----------------------------------------------------------------
    1      C       1.3685392917     0.0000001555     0.2562891083
    2      C      -0.0000000008    -0.0000000055    -0.7217728112
    3      H       1.2967359452    -0.8671712466     0.9179126343
    4      H       1.2967364733     0.8671711347     0.9179132268
    5      H       2.3664605521    -0.0000001381    -0.1855348020
    6      C      -1.3685394304    -0.0000002315     0.2562890328
    7      H       0.0000007663    -0.8754800121    -1.3751714776
    8      H      -0.0000003732     0.8754801338    -1.3751712992
    9      H      -1.2967364592    -0.8671709540     0.9179134570
   10      H      -2.3664608167     0.0000006688    -0.1855345783
   11      H      -1.2967360088     0.8671711610     0.9179125279
 ----------------------------------------------------------------

    7    -119.0782047797      4.42E-06 Convergence criterion met
    5    -119.1205909887      9.35E-06 Convergence criterion met
 Total energy in the final basis set = -119.12059099

                    Orbital Energies (a.u.)
 --------------------------------------------------------------

 Alpha MOs
 -- Occupied --
-10.2997 -10.2782 -10.2782  -0.8456  -0.7694  -0.6921  -0.5254  -0.5129
 -0.4661  -0.4596  -0.4219  -0.4161  -0.4111

                    Cartesian Multipole Moments
 -----------------------------------------------------------------
    Charge (ESU x 10^10)
                -0.0000
    Dipole Moment (Debye)
         X       0.0000      Y       0.0000      Z       0.0336
       Tot       0.0336
    Quadrupole Moments (Debye-Ang)
        XX     -21.4043     XY      -0.0000     YY     -21.7262
        XZ      -0.0000     YZ      -0.0000     ZZ     -21.9180

 Total job time:  30.73s(wall), 85.34s(cpu)
        *  Thank you very much for using Q-Chem.  Have a nice day.  *
