 Q-Chem 5.2 (devel), Q-Chem, Inc., Pleasanton, CA (2019)
 Q-Chem 5.2.2 for Intel X86 EM64T Linux

User input:
--------------------------------------------------------------
$rem
   JOBTYPE  sp
   EXCHANGE   omegaB97X-D
   BASIS   6-311+G(2df,2pd)
   max_scf_cycles   250
   geom_opt_max_cycles   1500
   basis2 6-31G*
   scf_algorithm rca_diis
   SYM_IGNORE  TRUE
   print_input   true
   geom_opt_dmax   80
   pop_mulliken false
   XC_GRID 000075000302
$end

$molecule
0 1
C       1.2131491449     -0.0000000090     0.1613832817
C       -0.1941765337     0.0000000004     -0.5644729856
H       1.3305656173     -0.8136640731     0.8885419386
H       1.3305655973     0.8136640525     0.8885419440
H       2.1605630999     0.0000000082     -0.3830297038
C       -1.3377171284     -0.0000000214     0.3506177018
H       0.1410054861     -0.8183161580     -1.2061658460
H       0.1410053625     0.8183161360     -1.2061659558
H       -1.3218381407     -0.9383311292     0.8975198768
H       -2.1412843550     0.0000007367     -0.3832452108
H       -1.3218382108     0.9383311228     0.8975199779
--------------------------------------------------------------

             Standard Nuclear Orientation (Angstroms)
    I     Atom           X                Y                Z
 ----------------------------------------------------------------
    1      C       1.2131491449    -0.0000000090     0.1613832817
    2      C      -0.1941765337     0.0000000004    -0.5644729856
    3      H       1.3305656173    -0.8136640731     0.8885419386
    4      H       1.3305655973     0.8136640525     0.8885419440
    5      H       2.1605630999     0.0000000082    -0.3830297038
    6      C      -1.3377171284    -0.0000000214     0.3506177018
    7      H       0.1410054861    -0.8183161580    -1.2061658460
    8      H       0.1410053625     0.8183161360    -1.2061659558
    9      H      -1.3218381407    -0.9383311292     0.8975198768
   10      H      -2.1412843550     0.0000007367    -0.3832452108
   11      H      -1.3218382108     0.9383311228     0.8975199779
 ----------------------------------------------------------------

    7    -119.0538193589      6.56E-06 Convergence criterion met
    5    -119.0987387585      9.27E-06 Convergence criterion met
 Total energy in the final basis set = -119.09873876

                    Orbital Energies (a.u.)
 --------------------------------------------------------------

 Alpha MOs
 -- Occupied --
-10.2757 -10.2734 -10.2620  -0.8901  -0.7856  -0.6830  -0.5498  -0.5252
 -0.4981  -0.4656  -0.4349  -0.3892  -0.3838

                    Cartesian Multipole Moments
 -----------------------------------------------------------------
    Charge (ESU x 10^10)
                 0.0000
    Dipole Moment (Debye)
         X      -0.0530      Y       0.0000      Z      -0.0363
       Tot       0.0642
    Quadrupole Moments (Debye-Ang)
        XX     -22.0934     XY      -0.0000     YY     -21.6491
        XZ      -0.4511     YZ      -0.0000     ZZ     -22.0391

 Total job time:  31.83s(wall), 88.30s(cpu)
        *  Thank you very much for using Q-Chem.  Have a nice day.  *
