 Q-Chem 5.2 (devel), Q-Chem, Inc., Pleasanton, CA (2019)
 Q-Chem 5.2.2 for Intel X86 EM64T Linux

User input:
--------------------------------------------------------------
$rem
   JOBTYPE  sp
   EXCHANGE   omegaB97X-D
   BASIS   6-311+G(2df,2pd)
   max_scf_cycles   250
   geom_opt_max_cycles   1500
   basis2 6-31G*
   scf_algorithm rca_diis
   SYM_IGNORE  TRUE
   print_input   true
   geom_opt_dmax   80
   pop_mulliken false
   XC_GRID 000075000302
$end

$molecule
0 1
C       1.2644485149     -0.0000000110     0.2523402398
C       -0.0000002869     -0.0000000475     -0.5916436856
H       1.3062538997     -0.9167232784     0.9248176871
H       1.3062538624     0.9167232260     0.9248176794
H       2.1951147421     0.0000000065     -0.3866124210
C       -1.2644491955     -0.0000001237     0.2523407044
H       -0.0000003538     -0.8753889376     -1.2490181320
H       -0.0000004441     0.8753889598     -1.2490181975
H       -1.3062541038     -0.9167198096     0.9248154201
H       -2.1951125454     0.0000006157     -0.3866099895
H       -1.3062541504     0.9167200658     0.9248157137
--------------------------------------------------------------

             Standard Nuclear Orientation (Angstroms)
    I     Atom           X                Y                Z
 ----------------------------------------------------------------
    1      C       1.2644485149    -0.0000000110     0.2523402398
    2      C      -0.0000002869    -0.0000000475    -0.5916436856
    3      H       1.3062538997    -0.9167232784     0.9248176871
    4      H       1.3062538624     0.9167232260     0.9248176794
    5      H       2.1951147421     0.0000000065    -0.3866124210
    6      C      -1.2644491955    -0.0000001237     0.2523407044
    7      H      -0.0000003538    -0.8753889376    -1.2490181320
    8      H      -0.0000004441     0.8753889598    -1.2490181975
    9      H      -1.3062541038    -0.9167198096     0.9248154201
   10      H      -2.1951125454     0.0000006157    -0.3866099895
   11      H      -1.3062541504     0.9167200658     0.9248157137
 ----------------------------------------------------------------

    7    -119.0980543203      4.34E-06 Convergence criterion met
    5    -119.1396837174      8.38E-06 Convergence criterion met
 Total energy in the final basis set = -119.13968372

                    Orbital Energies (a.u.)
 --------------------------------------------------------------

 Alpha MOs
 -- Occupied --
-10.2796 -10.2796 -10.2771  -0.8797  -0.7674  -0.6713  -0.5431  -0.5207
 -0.4777  -0.4546  -0.4174  -0.4164  -0.4045

                    Cartesian Multipole Moments
 -----------------------------------------------------------------
    Charge (ESU x 10^10)
                 0.0000
    Dipole Moment (Debye)
         X      -0.0000      Y      -0.0000      Z      -0.1579
       Tot       0.1579
    Quadrupole Moments (Debye-Ang)
        XX     -22.5001     XY      -0.0000     YY     -21.5547
        XZ      -0.0000     YZ      -0.0000     ZZ     -22.0378

 Total job time:  30.73s(wall), 85.47s(cpu)
        *  Thank you very much for using Q-Chem.  Have a nice day.  *
