 Q-Chem 5.2 (devel), Q-Chem, Inc., Pleasanton, CA (2019)
 Q-Chem 5.2.2 for Intel X86 EM64T Linux

User input:
--------------------------------------------------------------
$rem
   JOBTYPE  sp
   EXCHANGE   omegaB97X-D
   BASIS   6-311+G(2df,2pd)
   max_scf_cycles   250
   geom_opt_max_cycles   1500
   basis2 6-31G*
   scf_algorithm rca_diis
   SYM_IGNORE  TRUE
   print_input   true
   geom_opt_dmax   80
   pop_mulliken false
   XC_GRID 000075000302
$end

$molecule
0 1
C       1.2613371137     0.2135220025     0.0874213207
C       -0.0000022228     -0.6113273973     -0.1392400618
H       2.1021730522     0.0564266313     -0.5857199239
H       1.5823844789     -0.0701364786     1.0954271518
H       1.0400650258     1.2811237600     0.1077727400
C       -1.2613358603     0.2135314286     0.0874160549
H       -0.0000064848     -1.6149350429     0.2945104513
H       -0.0000003582     -0.7356599997     -1.2239975835
H       -2.1021882098     0.0563923023     -0.5856953821
H       -1.0400697506     1.2811353394     0.1077039710
H       -1.5823568446     -0.0700718797     1.0954462805
--------------------------------------------------------------

             Standard Nuclear Orientation (Angstroms)
    I     Atom           X                Y                Z
 ----------------------------------------------------------------
    1      C       1.2613371137     0.2135220025     0.0874213207
    2      C      -0.0000022228    -0.6113273973    -0.1392400618
    3      H       2.1021730522     0.0564266313    -0.5857199239
    4      H       1.5823844789    -0.0701364786     1.0954271518
    5      H       1.0400650258     1.2811237600     0.1077727400
    6      C      -1.2613358603     0.2135314286     0.0874160549
    7      H      -0.0000064848    -1.6149350429     0.2945104513
    8      H      -0.0000003582    -0.7356599997    -1.2239975835
    9      H      -2.1021882098     0.0563923023    -0.5856953821
   10      H      -1.0400697506     1.2811353394     0.1077039710
   11      H      -1.5823568446    -0.0700718797     1.0954462805
 ----------------------------------------------------------------

    7    -119.0833213905      4.68E-06 Convergence criterion met
    6    -119.1270024333      4.18E-06 Convergence criterion met
 Total energy in the final basis set = -119.12700243

                    Orbital Energies (a.u.)
 --------------------------------------------------------------

 Alpha MOs
 -- Occupied --
-10.2727 -10.2647 -10.2647  -0.8836  -0.7762  -0.6784  -0.5470  -0.5298
 -0.4771  -0.4672  -0.4338  -0.4150  -0.3816

                    Cartesian Multipole Moments
 -----------------------------------------------------------------
    Charge (ESU x 10^10)
                 0.0000
    Dipole Moment (Debye)
         X       0.0000      Y      -0.0562      Z      -0.0612
       Tot       0.0831
    Quadrupole Moments (Debye-Ang)
        XX     -22.2657     XY       0.0000     YY     -21.4828
        XZ      -0.0000     YZ      -0.5442     ZZ     -21.7577

 Total job time:  40.44s(wall), 112.43s(cpu)
        *  Thank you very much for using Q-Chem.  Have a nice day.  *
