 Q-Chem 5.2 (devel), Q-Chem, Inc., Pleasanton, CA (2019)
 Q-Chem 5.2.2 for Intel X86 EM64T Linux

User input:
--------------------------------------------------------------
$rem
   JOBTYPE  sp
   EXCHANGE   omegaB97X-D
   BASIS   6-311+G(2df,2pd)
   max_scf_cycles   250
   geom_opt_max_cycles   1500
   basis2 6-31G*
   scf_algorithm rca_diis
   SYM_IGNORE  TRUE
   print_input   true
   geom_opt_dmax   80
   pop_mulliken false
   XC_GRID 000075000302
$end

$molecule
0 1
C       1.2801440623     0.0000007950     0.2464071651
C       0.0039495200     0.0000007607     -0.5872403110
H       1.3197091592     -0.9014804732     0.9096516579
H       1.3197091222     0.9014790319     0.9096497149
H       2.1207370707     0.0000005673     -0.3388715173
C       -1.2541321150     0.0000007423     0.2724292408
H       0.0000322065     -0.8738704106     -1.2430550126
H       0.0000321416     0.8738697622     -1.2430536706
H       -1.2907651551     -0.8597345001     0.8979806383
H       -2.2086509606     0.0000012136     -0.3808317337
H       -1.2907651123     0.8597331772     0.8979788471
--------------------------------------------------------------

             Standard Nuclear Orientation (Angstroms)
    I     Atom           X                Y                Z
 ----------------------------------------------------------------
    1      C       1.2801440623     0.0000007950     0.2464071651
    2      C       0.0039495200     0.0000007607    -0.5872403110
    3      H       1.3197091592    -0.9014804732     0.9096516579
    4      H       1.3197091222     0.9014790319     0.9096497149
    5      H       2.1207370707     0.0000005673    -0.3388715173
    6      C      -1.2541321150     0.0000007423     0.2724292408
    7      H       0.0000322065    -0.8738704106    -1.2430550126
    8      H       0.0000321416     0.8738697622    -1.2430536706
    9      H      -1.2907651551    -0.8597345001     0.8979806383
   10      H      -2.2086509606     0.0000012136    -0.3808317337
   11      H      -1.2907651123     0.8597331772     0.8979788471
 ----------------------------------------------------------------

    7    -119.0956944417      4.69E-06 Convergence criterion met
    5    -119.1389099572      9.98E-06 Convergence criterion met
 Total energy in the final basis set = -119.13890996

                    Orbital Energies (a.u.)
 --------------------------------------------------------------

 Alpha MOs
 -- Occupied --
-10.2745 -10.2655 -10.2640  -0.8817  -0.7783  -0.6785  -0.5462  -0.5256
 -0.4819  -0.4640  -0.4218  -0.4142  -0.4074

                    Cartesian Multipole Moments
 -----------------------------------------------------------------
    Charge (ESU x 10^10)
                 0.0000
    Dipole Moment (Debye)
         X       0.0826      Y       0.0000      Z      -0.0831
       Tot       0.1172
    Quadrupole Moments (Debye-Ang)
        XX     -22.1985     XY       0.0000     YY     -21.3625
        XZ      -0.1295     YZ      -0.0000     ZZ     -21.8344

 Total job time:  31.29s(wall), 87.01s(cpu)
        *  Thank you very much for using Q-Chem.  Have a nice day.  *
