 Q-Chem 5.2 (devel), Q-Chem, Inc., Pleasanton, CA (2019)
 Q-Chem 5.2.2 for Intel X86 EM64T Linux

User input:
--------------------------------------------------------------
$rem
   JOBTYPE  sp
   EXCHANGE   omegaB97X-D
   BASIS   6-311+G(2df,2pd)
   max_scf_cycles   250
   geom_opt_max_cycles   1500
   basis2 6-31G*
   scf_algorithm rca_diis
   SYM_IGNORE  TRUE
   print_input   true
   geom_opt_dmax   80
   pop_mulliken false
   XC_GRID 000075000302
$end

$molecule
0 1
C       1.2246163621     -0.0000000063     0.1852336020
C       -0.1481281884     0.0000000010     -0.5738214371
H       1.3207332308     -0.8311564614     0.8933472323
H       1.3207332164     0.8311564480     0.8933472346
H       2.1617970402     0.0000000057     -0.3755303380
C       -1.3199993367     -0.0000000204     0.3292526711
H       0.1115828919     -0.8414942598     -1.2205012162
H       0.1115827839     0.8414942404     -1.2205012992
H       -1.3152526839     -0.9249465150     0.9014010629
H       -2.1524126432     0.0000007259     -0.3725836323
H       -1.3152527337     0.9249465078     0.9014011389
--------------------------------------------------------------

             Standard Nuclear Orientation (Angstroms)
    I     Atom           X                Y                Z
 ----------------------------------------------------------------
    1      C       1.2246163621    -0.0000000063     0.1852336020
    2      C      -0.1481281884     0.0000000010    -0.5738214371
    3      H       1.3207332308    -0.8311564614     0.8933472323
    4      H       1.3207332164     0.8311564480     0.8933472346
    5      H       2.1617970402     0.0000000057    -0.3755303380
    6      C      -1.3199993367    -0.0000000204     0.3292526711
    7      H       0.1115828919    -0.8414942598    -1.2205012162
    8      H       0.1115827839     0.8414942404    -1.2205012992
    9      H      -1.3152526839    -0.9249465150     0.9014010629
   10      H      -2.1524126432     0.0000007259    -0.3725836323
   11      H      -1.3152527337     0.9249465078     0.9014011389
 ----------------------------------------------------------------

    7    -119.0747417383      5.75E-06 Convergence criterion met
    5    -119.1187957697      9.60E-06 Convergence criterion met
 Total energy in the final basis set = -119.11879577

                    Orbital Energies (a.u.)
 --------------------------------------------------------------

 Alpha MOs
 -- Occupied --
-10.2751 -10.2713 -10.2618  -0.8863  -0.7820  -0.6806  -0.5479  -0.5247
 -0.4924  -0.4654  -0.4324  -0.3964  -0.3930

                    Cartesian Multipole Moments
 -----------------------------------------------------------------
    Charge (ESU x 10^10)
                 0.0000
    Dipole Moment (Debye)
         X      -0.0519      Y       0.0000      Z      -0.0552
       Tot       0.0758
    Quadrupole Moments (Debye-Ang)
        XX     -22.1155     XY      -0.0000     YY     -21.5307
        XZ      -0.3656     YZ      -0.0000     ZZ     -21.9655

 Total job time:  31.77s(wall), 88.28s(cpu)
        *  Thank you very much for using Q-Chem.  Have a nice day.  *
