 Q-Chem 5.2 (devel), Q-Chem, Inc., Pleasanton, CA (2019)
 Q-Chem 5.2.2 for Intel X86 EM64T Linux

User input:
--------------------------------------------------------------
$rem
   JOBTYPE  sp
   EXCHANGE   omegaB97X-D
   BASIS   6-311+G(2df,2pd)
   max_scf_cycles   250
   geom_opt_max_cycles   1500
   basis2 6-31G*
   scf_algorithm rca_diis
   SYM_IGNORE  TRUE
   print_input   true
   geom_opt_dmax   80
   pop_mulliken false
   XC_GRID 000075000302
$end

$molecule
0 1
C       1.1095818288     -0.6119627540     0.2616935397
C       0.0000029821     0.0000135659     -0.5850874208
H       1.9612688622     0.0651909360     0.2725227002
H       1.4584069354     -1.5751365251     -0.1268764738
H       0.7927319078     -0.7569036246     1.2950030839
C       -1.1095850155     0.6119549890     0.2617070657
H       -0.3161355684     -0.8159386507     -1.2393304496
H       0.3161481145     0.8159940351     -1.2392931056
H       -1.4584821634     1.5750933831     -0.1268834229
H       -0.7927079693     0.7569442171     1.2950015814
H       -1.9612299749     -0.0652489057     0.2725879207
--------------------------------------------------------------

             Standard Nuclear Orientation (Angstroms)
    I     Atom           X                Y                Z
 ----------------------------------------------------------------
    1      C       1.1095818288    -0.6119627540     0.2616935397
    2      C       0.0000029821     0.0000135659    -0.5850874208
    3      H       1.9612688622     0.0651909360     0.2725227002
    4      H       1.4584069354    -1.5751365251    -0.1268764738
    5      H       0.7927319078    -0.7569036246     1.2950030839
    6      C      -1.1095850155     0.6119549890     0.2617070657
    7      H      -0.3161355684    -0.8159386507    -1.2393304496
    8      H       0.3161481145     0.8159940351    -1.2392931056
    9      H      -1.4584821634     1.5750933831    -0.1268834229
   10      H      -0.7927079693     0.7569442171     1.2950015814
   11      H      -1.9612299749    -0.0652489057     0.2725879207
 ----------------------------------------------------------------

    7    -119.0897446831      4.37E-06 Convergence criterion met
    6    -119.1331788514      4.01E-06 Convergence criterion met
 Total energy in the final basis set = -119.13317885

                    Orbital Energies (a.u.)
 --------------------------------------------------------------

 Alpha MOs
 -- Occupied --
-10.2716 -10.2640 -10.2640  -0.8815  -0.7769  -0.6776  -0.5449  -0.5274
 -0.4788  -0.4697  -0.4202  -0.4192  -0.3911

                    Cartesian Multipole Moments
 -----------------------------------------------------------------
    Charge (ESU x 10^10)
                 0.0000
    Dipole Moment (Debye)
         X       0.0000      Y      -0.0000      Z      -0.0722
       Tot       0.0722
    Quadrupole Moments (Debye-Ang)
        XX     -22.3690     XY       0.2499     YY     -21.2531
        XZ       0.0000     YZ       0.0000     ZZ     -21.8369

 Total job time:  40.99s(wall), 113.87s(cpu)
        *  Thank you very much for using Q-Chem.  Have a nice day.  *
