 Q-Chem 5.2 (devel), Q-Chem, Inc., Pleasanton, CA (2019)
 Q-Chem 5.2.2 for Intel X86 EM64T Linux

User input:
--------------------------------------------------------------
$rem
   JOBTYPE  sp
   EXCHANGE   omegaB97X-D
   BASIS   6-311+G(2df,2pd)
   max_scf_cycles   250
   geom_opt_max_cycles   1500
   basis2 6-31G*
   scf_algorithm rca_diis
   SYM_IGNORE  TRUE
   print_input   true
   geom_opt_dmax   80
   pop_mulliken false
   XC_GRID 000075000302
$end

$molecule
0 1
C       1.2754566009     0.0000000295     0.2806275564
C       0.0000008150     0.0000001409     -0.5742702589
H       1.3033350039     -0.7720374933     0.8410031963
H       1.3033350995     0.7720376419     0.8410032238
H       2.0737188962     -0.0000000166     -0.2795364758
C       -1.2754546529     0.0000002995     0.2806261629
H       0.0000010099     -0.8693196480     -1.2254418414
H       0.0000010404     0.8693195784     -1.2254416444
H       -1.3033342321     -0.7720479728     0.8410099188
H       -2.0737255255     0.0000008962     -0.2795438494
H       -1.3033341159     0.7720472101     0.8410090306
--------------------------------------------------------------

             Standard Nuclear Orientation (Angstroms)
    I     Atom           X                Y                Z
 ----------------------------------------------------------------
    1      C       1.2754566009     0.0000000295     0.2806275564
    2      C       0.0000008150     0.0000001409    -0.5742702589
    3      H       1.3033350039    -0.7720374933     0.8410031963
    4      H       1.3033350995     0.7720376419     0.8410032238
    5      H       2.0737188962    -0.0000000166    -0.2795364758
    6      C      -1.2754546529     0.0000002995     0.2806261629
    7      H       0.0000010099    -0.8693196480    -1.2254418414
    8      H       0.0000010404     0.8693195784    -1.2254416444
    9      H      -1.3033342321    -0.7720479728     0.8410099188
   10      H      -2.0737255255     0.0000008962    -0.2795438494
   11      H      -1.3033341159     0.7720472101     0.8410090306
 ----------------------------------------------------------------

    7    -119.0148721989      7.56E-06 Convergence criterion met
    6    -119.0655340244      3.99E-06 Convergence criterion met
 Total energy in the final basis set = -119.06553402

                    Orbital Energies (a.u.)
 --------------------------------------------------------------

 Alpha MOs
 -- Occupied --
-10.2671 -10.2179 -10.2179  -0.8913  -0.8118  -0.6971  -0.5574  -0.5377
 -0.5014  -0.4927  -0.4212  -0.4200  -0.4166

                    Cartesian Multipole Moments
 -----------------------------------------------------------------
    Charge (ESU x 10^10)
                -0.0000
    Dipole Moment (Debye)
         X       0.0000      Y       0.0000      Z       0.1006
       Tot       0.1006
    Quadrupole Moments (Debye-Ang)
        XX     -21.1277     XY      -0.0000     YY     -20.7549
        XZ       0.0000     YZ      -0.0000     ZZ     -21.1781

 Total job time:  36.08s(wall), 100.51s(cpu)
        *  Thank you very much for using Q-Chem.  Have a nice day.  *
