 Q-Chem 5.2 (devel), Q-Chem, Inc., Pleasanton, CA (2019)
 Q-Chem 5.2.2 for Intel X86 EM64T Linux

User input:
--------------------------------------------------------------
$rem
   JOBTYPE  sp
   EXCHANGE   omegaB97X-D
   BASIS   6-311+G(2df,2pd)
   max_scf_cycles   250
   geom_opt_max_cycles   1500
   basis2 6-31G*
   scf_algorithm rca_diis
   SYM_IGNORE  TRUE
   print_input   true
   geom_opt_dmax   80
   pop_mulliken false
   XC_GRID 000075000302
$end

$molecule
0 1
C       1.1095920215     0.6119615254     0.2616895947
C       0.0000036853     -0.0000141118     -0.5850827253
H       1.4584211229     1.5751347741     -0.1268782042
H       1.9612778389     -0.0651936310     0.2725254209
H       0.7927417261     0.7569057410     1.2949987824
C       -1.1095941773     -0.6119523255     0.2617038592
H       0.3161461783     -0.8159975299     -1.2392868334
H       -0.3161300771     0.8159396050     -1.2393270229
H       -1.9612382597     0.0652559665     0.2725865607
H       -0.7927264053     -0.7569464281     1.2950006158
H       -1.4584937142     -1.5750929196     -0.1268850291
--------------------------------------------------------------

             Standard Nuclear Orientation (Angstroms)
    I     Atom           X                Y                Z
 ----------------------------------------------------------------
    1      C       1.1095920215     0.6119615254     0.2616895947
    2      C       0.0000036853    -0.0000141118    -0.5850827253
    3      H       1.4584211229     1.5751347741    -0.1268782042
    4      H       1.9612778389    -0.0651936310     0.2725254209
    5      H       0.7927417261     0.7569057410     1.2949987824
    6      C      -1.1095941773    -0.6119523255     0.2617038592
    7      H       0.3161461783    -0.8159975299    -1.2392868334
    8      H      -0.3161300771     0.8159396050    -1.2393270229
    9      H      -1.9612382597     0.0652559665     0.2725865607
   10      H      -0.7927264053    -0.7569464281     1.2950006158
   11      H      -1.4584937142    -1.5750929196    -0.1268850291
 ----------------------------------------------------------------

    7    -119.0897450694      4.37E-06 Convergence criterion met
    6    -119.1331791774      4.01E-06 Convergence criterion met
 Total energy in the final basis set = -119.13317918

                    Orbital Energies (a.u.)
 --------------------------------------------------------------

 Alpha MOs
 -- Occupied --
-10.2716 -10.2640 -10.2640  -0.8815  -0.7769  -0.6776  -0.5449  -0.5274
 -0.4788  -0.4697  -0.4202  -0.4192  -0.3911

                    Cartesian Multipole Moments
 -----------------------------------------------------------------
    Charge (ESU x 10^10)
                 0.0000
    Dipole Moment (Debye)
         X       0.0000      Y       0.0000      Z      -0.0722
       Tot       0.0722
    Quadrupole Moments (Debye-Ang)
        XX     -22.3690     XY      -0.2499     YY     -21.2531
        XZ      -0.0000     YZ      -0.0000     ZZ     -21.8370

 Total job time:  40.54s(wall), 112.54s(cpu)
        *  Thank you very much for using Q-Chem.  Have a nice day.  *
