 Q-Chem 5.2 (devel), Q-Chem, Inc., Pleasanton, CA (2019)
 Q-Chem 5.2.2 for Intel X86 EM64T Linux

User input:
--------------------------------------------------------------
$rem
   JOBTYPE  sp
   EXCHANGE   omegaB97X-D
   BASIS   6-311+G(2df,2pd)
   max_scf_cycles   250
   geom_opt_max_cycles   1500
   basis2 6-31G*
   scf_algorithm rca_diis
   SYM_IGNORE  TRUE
   print_input   true
   geom_opt_dmax   80
   pop_mulliken false
   XC_GRID 000075000302
$end

$molecule
0 1
C       1.2669099863     0.0524411640     0.2503366219
C       -0.0000001281     -0.1852204469     -0.5627919129
H       1.6642720310     -0.8674535402     0.6821129742
H       1.0449124480     0.7340767297     1.0749064814
H       2.0528921145     0.5065583929     -0.3539293160
C       -1.2669099069     0.0524442246     0.2503360843
H       -0.0000011081     -1.1846250580     -1.0047249409
H       0.0000008175     0.5185868060     -1.3982895784
H       -1.6642648839     -0.8674484755     0.6821234964
H       -2.0528959735     0.5065503631     -0.3539329500
H       -1.0449154575     0.7340905063     1.0748980589
--------------------------------------------------------------

             Standard Nuclear Orientation (Angstroms)
    I     Atom           X                Y                Z
 ----------------------------------------------------------------
    1      C       1.2669099863     0.0524411640     0.2503366219
    2      C      -0.0000001281    -0.1852204469    -0.5627919129
    3      H       1.6642720310    -0.8674535402     0.6821129742
    4      H       1.0449124480     0.7340767297     1.0749064814
    5      H       2.0528921145     0.5065583929    -0.3539293160
    6      C      -1.2669099069     0.0524442246     0.2503360843
    7      H      -0.0000011081    -1.1846250580    -1.0047249409
    8      H       0.0000008175     0.5185868060    -1.3982895784
    9      H      -1.6642648839    -0.8674484755     0.6821234964
   10      H      -2.0528959735     0.5065503631    -0.3539329500
   11      H      -1.0449154575     0.7340905063     1.0748980589
 ----------------------------------------------------------------

    7    -119.0952564304      4.27E-06 Convergence criterion met
    6    -119.1385400393      3.98E-06 Convergence criterion met
 Total energy in the final basis set = -119.13854004

                    Orbital Energies (a.u.)
 --------------------------------------------------------------

 Alpha MOs
 -- Occupied --
-10.2725 -10.2640 -10.2640  -0.8815  -0.7762  -0.6782  -0.5450  -0.5281
 -0.4782  -0.4652  -0.4204  -0.4163  -0.4013

                    Cartesian Multipole Moments
 -----------------------------------------------------------------
    Charge (ESU x 10^10)
                 0.0000
    Dipole Moment (Debye)
         X      -0.0000      Y      -0.0100      Z      -0.0888
       Tot       0.0894
    Quadrupole Moments (Debye-Ang)
        XX     -22.2828     XY      -0.0000     YY     -21.2977
        XZ      -0.0000     YZ      -0.1556     ZZ     -21.8427

 Total job time:  35.96s(wall), 100.56s(cpu)
        *  Thank you very much for using Q-Chem.  Have a nice day.  *
