 Q-Chem 5.2 (devel), Q-Chem, Inc., Pleasanton, CA (2019)
 Q-Chem 5.2.2 for Intel X86 EM64T Linux

User input:
--------------------------------------------------------------
$rem
   JOBTYPE  sp
   EXCHANGE   omegaB97X-D
   BASIS   6-311+G(2df,2pd)
   max_scf_cycles   250
   geom_opt_max_cycles   1500
   basis2 6-31G*
   scf_algorithm rca_diis
   SYM_IGNORE  TRUE
   print_input   true
   geom_opt_dmax   80
   pop_mulliken false
   XC_GRID 000075000302
$end

$molecule
0 1
C       1.2514550897     -0.2471847323     -0.0858922564
C       -0.0000027322     0.4648466733     0.4136976104
H       1.9485435834     0.6005448708     -0.0837935385
H       1.3034743278     -0.7274910917     -1.0587729487
H       1.6209504075     -0.9544792717     0.6573227046
C       -1.2514544144     -0.2471878640     -0.0859051978
H       -0.0000004678     1.2606236396     -0.3331829794
H       -0.0000087583     0.9317951194     1.4028394279
H       -1.9485838331     0.6005065686     -0.0837071805
H       -1.6208875600     -0.9545625472     0.6572650915
H       -1.3034857031     -0.7274106988     -1.0588257141
--------------------------------------------------------------

             Standard Nuclear Orientation (Angstroms)
    I     Atom           X                Y                Z
 ----------------------------------------------------------------
    1      C       1.2514550897    -0.2471847323    -0.0858922564
    2      C      -0.0000027322     0.4648466733     0.4136976104
    3      H       1.9485435834     0.6005448708    -0.0837935385
    4      H       1.3034743278    -0.7274910917    -1.0587729487
    5      H       1.6209504075    -0.9544792717     0.6573227046
    6      C      -1.2514544144    -0.2471878640    -0.0859051978
    7      H      -0.0000004678     1.2606236396    -0.3331829794
    8      H      -0.0000087583     0.9317951194     1.4028394279
    9      H      -1.9485838331     0.6005065686    -0.0837071805
   10      H      -1.6208875600    -0.9545625472     0.6572650915
   11      H      -1.3034857031    -0.7274106988    -1.0588257141
 ----------------------------------------------------------------

    7    -119.0670268184      6.62E-06 Convergence criterion met
    5    -119.1110745173      9.06E-06 Convergence criterion met
 Total energy in the final basis set = -119.11107452

                    Orbital Energies (a.u.)
 --------------------------------------------------------------

 Alpha MOs
 -- Occupied --
-10.2762 -10.2625 -10.2625  -0.8858  -0.7785  -0.6761  -0.5478  -0.5118
 -0.5015  -0.4652  -0.4517  -0.3826  -0.3813

                    Cartesian Multipole Moments
 -----------------------------------------------------------------
    Charge (ESU x 10^10)
                -0.0000
    Dipole Moment (Debye)
         X       0.0000      Y       0.2099      Z      -0.0254
       Tot       0.2115
    Quadrupole Moments (Debye-Ang)
        XX     -23.3003     XY      -0.0000     YY     -21.6447
        XZ       0.0000     YZ       0.5760     ZZ     -20.7662

 Total job time:  37.73s(wall), 102.79s(cpu)
        *  Thank you very much for using Q-Chem.  Have a nice day.  *
