 Q-Chem 5.2 (devel), Q-Chem, Inc., Pleasanton, CA (2019)
 Q-Chem 5.2.2 for Intel X86 EM64T Linux

User input:
--------------------------------------------------------------
$rem
   JOBTYPE  sp
   EXCHANGE   omegaB97X-D
   BASIS   6-311+G(2df,2pd)
   max_scf_cycles   250
   geom_opt_max_cycles   1500
   basis2 6-31G*
   scf_algorithm rca_diis
   SYM_IGNORE  TRUE
   print_input   true
   geom_opt_dmax   80
   pop_mulliken false
   XC_GRID 000075000302
$end

$molecule
0 1
C       1.2590059995     0.1427383634     0.2743558561
C       -0.0000001224     0.0000003629     -0.5725499661
H       1.0941142511     -0.8635733752     0.6774690616
H       1.5158682384     0.8270191562     1.0792306349
H       2.1306342390     -0.0403532413     -0.3548212248
C       -1.2590065710     -0.1427379447     0.2743550882
H       0.3675115580     -0.8001435731     -1.2194353334
H       -0.3675107213     0.8001430239     -1.2194375630
H       -1.5158675069     -0.8270197094     1.0792293812
H       -2.1306356279     0.0403544887     -0.3548205206
H       -1.0941137970     0.8635731147     0.6774696047
--------------------------------------------------------------

             Standard Nuclear Orientation (Angstroms)
    I     Atom           X                Y                Z
 ----------------------------------------------------------------
    1      C       1.2590059995     0.1427383634     0.2743558561
    2      C      -0.0000001224     0.0000003629    -0.5725499661
    3      H       1.0941142511    -0.8635733752     0.6774690616
    4      H       1.5158682384     0.8270191562     1.0792306349
    5      H       2.1306342390    -0.0403532413    -0.3548212248
    6      C      -1.2590065710    -0.1427379447     0.2743550882
    7      H       0.3675115580    -0.8001435731    -1.2194353334
    8      H      -0.3675107213     0.8001430239    -1.2194375630
    9      H      -1.5158675069    -0.8270197094     1.0792293812
   10      H      -2.1306356279     0.0403544887    -0.3548205206
   11      H      -1.0941137970     0.8635731147     0.6774696047
 ----------------------------------------------------------------

    7    -119.0496026117      5.59E-06 Convergence criterion met
    6    -119.0944512872      4.42E-06 Convergence criterion met
 Total energy in the final basis set = -119.09445129

                    Orbital Energies (a.u.)
 --------------------------------------------------------------

 Alpha MOs
 -- Occupied --
-10.2844 -10.2670 -10.2669  -0.8948  -0.7864  -0.6764  -0.5629  -0.5314
 -0.4751  -0.4714  -0.4189  -0.3977  -0.3971

                    Cartesian Multipole Moments
 -----------------------------------------------------------------
    Charge (ESU x 10^10)
                -0.0000
    Dipole Moment (Debye)
         X       0.0000      Y      -0.0000      Z      -0.0234
       Tot       0.0234
    Quadrupole Moments (Debye-Ang)
        XX     -21.9117     XY      -0.2130     YY     -21.8408
        XZ       0.0000     YZ      -0.0000     ZZ     -21.9242

 Total job time:  35.17s(wall), 98.34s(cpu)
        *  Thank you very much for using Q-Chem.  Have a nice day.  *
