 Q-Chem 5.2 (devel), Q-Chem, Inc., Pleasanton, CA (2019)
 Q-Chem 5.2.2 for Intel X86 EM64T Linux

User input:
--------------------------------------------------------------
$rem
   JOBTYPE  sp
   EXCHANGE   omegaB97X-D
   BASIS   6-311+G(2df,2pd)
   max_scf_cycles   250
   geom_opt_max_cycles   1500
   basis2 6-31G*
   scf_algorithm rca_diis
   SYM_IGNORE  TRUE
   print_input   true
   geom_opt_dmax   80
   pop_mulliken false
   XC_GRID 000075000302
$end

$molecule
0 1
C       1.1915459611     -0.4312236976     0.2667959778
C       0.0000015938     0.0000099612     -0.5799498757
H       2.0925606693     -0.4334187955     -0.3453070012
H       1.0670494132     -1.4395127761     0.6738912247
H       1.3604484424     0.2515707249     1.1000975234
C       -1.1915465830     0.4312180926     0.2668038243
H       -0.2194662112     -0.8464440959     -1.2350111724
H       0.2194718534     0.8464845823     -1.2349845229
H       -1.0670874844     1.4395228965     0.6738698787
H       -1.3604071710     -0.2515647057     1.1001234482
H       -2.0925705440     0.4333584793     -0.3452842861
--------------------------------------------------------------

             Standard Nuclear Orientation (Angstroms)
    I     Atom           X                Y                Z
 ----------------------------------------------------------------
    1      C       1.1915459611    -0.4312236976     0.2667959778
    2      C       0.0000015938     0.0000099612    -0.5799498757
    3      H       2.0925606693    -0.4334187955    -0.3453070012
    4      H       1.0670494132    -1.4395127761     0.6738912247
    5      H       1.3604484424     0.2515707249     1.1000975234
    6      C      -1.1915465830     0.4312180926     0.2668038243
    7      H      -0.2194662112    -0.8464440959    -1.2350111724
    8      H       0.2194718534     0.8464845823    -1.2349845229
    9      H      -1.0670874844     1.4395228965     0.6738698787
   10      H      -1.3604071710    -0.2515647057     1.1001234482
   11      H      -2.0925705440     0.4333584793    -0.3452842861
 ----------------------------------------------------------------

    7    -119.0997084690      4.58E-06 Convergence criterion met
    6    -119.1427028902      3.80E-06 Convergence criterion met
 Total energy in the final basis set = -119.14270289

                    Orbital Energies (a.u.)
 --------------------------------------------------------------

 Alpha MOs
 -- Occupied --
-10.2736 -10.2646 -10.2646  -0.8810  -0.7775  -0.6772  -0.5452  -0.5230
 -0.4842  -0.4664  -0.4194  -0.4181  -0.4008

                    Cartesian Multipole Moments
 -----------------------------------------------------------------
    Charge (ESU x 10^10)
                 0.0000
    Dipole Moment (Debye)
         X      -0.0000      Y       0.0000      Z      -0.1026
       Tot       0.1026
    Quadrupole Moments (Debye-Ang)
        XX     -22.2983     XY       0.1493     YY     -21.2760
        XZ       0.0000     YZ       0.0000     ZZ     -21.8086

 Total job time:  40.65s(wall), 112.63s(cpu)
        *  Thank you very much for using Q-Chem.  Have a nice day.  *
