 Q-Chem 5.2 (devel), Q-Chem, Inc., Pleasanton, CA (2019)
 Q-Chem 5.2.2 for Intel X86 EM64T Linux

User input:
--------------------------------------------------------------
$rem
   JOBTYPE  sp
   EXCHANGE   omegaB97X-D
   BASIS   6-311+G(2df,2pd)
   max_scf_cycles   250
   geom_opt_max_cycles   1500
   basis2 6-31G*
   scf_algorithm rca_diis
   SYM_IGNORE  TRUE
   print_input   true
   geom_opt_dmax   80
   pop_mulliken false
   XC_GRID 000075000302
$end

$molecule
0 1
C       1.2558134158     -0.0000000249     0.2369382877
C       -0.0000001938     -0.0000000424     -0.6004128082
H       1.3511337873     -0.8580130538     0.9076487808
H       1.3511337443     0.8580130225     0.9076487582
H       2.1904700796     -0.0000000376     -0.3274025705
C       -1.2558139344     -0.0000000087     0.2369384682
H       -0.0000000779     -0.8746373973     -1.2541042111
H       -0.0000003112     0.8746373649     -1.2541041305
H       -1.3511331533     -0.8580131329     0.9076489444
H       -2.1904699316     0.0000008303     -0.3274033676
H       -1.3511334855     0.8580131460     0.9076488675
--------------------------------------------------------------

             Standard Nuclear Orientation (Angstroms)
    I     Atom           X                Y                Z
 ----------------------------------------------------------------
    1      C       1.2558134158    -0.0000000249     0.2369382877
    2      C      -0.0000001938    -0.0000000424    -0.6004128082
    3      H       1.3511337873    -0.8580130538     0.9076487808
    4      H       1.3511337443     0.8580130225     0.9076487582
    5      H       2.1904700796    -0.0000000376    -0.3274025705
    6      C      -1.2558139344    -0.0000000087     0.2369384682
    7      H      -0.0000000779    -0.8746373973    -1.2541042111
    8      H      -0.0000003112     0.8746373649    -1.2541041305
    9      H      -1.3511331533    -0.8580131329     0.9076489444
   10      H      -2.1904699316     0.0000008303    -0.3274033676
   11      H      -1.3511334855     0.8580131460     0.9076488675
 ----------------------------------------------------------------

    7    -119.0997061029      4.44E-06 Convergence criterion met
    5    -119.1429347575      9.71E-06 Convergence criterion met
 Total energy in the final basis set = -119.14293476

                    Orbital Energies (a.u.)
 --------------------------------------------------------------

 Alpha MOs
 -- Occupied --
-10.2766 -10.2643 -10.2643  -0.8836  -0.7792  -0.6840  -0.5435  -0.5247
 -0.4857  -0.4567  -0.4230  -0.4197  -0.4047

                    Cartesian Multipole Moments
 -----------------------------------------------------------------
    Charge (ESU x 10^10)
                -0.0000
    Dipole Moment (Debye)
         X       0.0000      Y       0.0000      Z      -0.0443
       Tot       0.0443
    Quadrupole Moments (Debye-Ang)
        XX     -21.7457     XY      -0.0000     YY     -21.5671
        XZ       0.0000     YZ      -0.0000     ZZ     -21.7585

 Total job time:  31.16s(wall), 86.47s(cpu)
        *  Thank you very much for using Q-Chem.  Have a nice day.  *
