 Q-Chem 5.2 (devel), Q-Chem, Inc., Pleasanton, CA (2019)
 Q-Chem 5.2.2 for Intel X86 EM64T Linux

User input:
--------------------------------------------------------------
$rem
   JOBTYPE  sp
   EXCHANGE   omegaB97X-D
   BASIS   6-311+G(2df,2pd)
   max_scf_cycles   250
   geom_opt_max_cycles   1500
   basis2 6-31G*
   scf_algorithm rca_diis
   SYM_IGNORE  TRUE
   print_input   true
   geom_opt_dmax   80
   pop_mulliken false
   XC_GRID 000075000302
$end

$molecule
0 1
C       1.1867337951     -0.0000001242     0.2637062161
C       -0.0000000041     0.0000000045     -0.4893467260
H       1.3034619827     -0.8879703095     0.8866216989
H       1.3034615443     0.8879703948     0.8866213201
H       1.9883933395     0.0000000955     -0.4745305840
C       -1.1867337123     0.0000001443     0.2637062649
H       -0.0000006131     -0.8724833943     -1.1472226000
H       0.0000001900     0.8724833038     -1.1472227324
H       -1.3034615386     -0.8879705103     0.8866211279
H       -1.9883930882     0.0000006955     -0.4745307248
H       -1.3034619560     0.8879703658     0.8866217583
--------------------------------------------------------------

             Standard Nuclear Orientation (Angstroms)
    I     Atom           X                Y                Z
 ----------------------------------------------------------------
    1      C       1.1867337951    -0.0000001242     0.2637062161
    2      C      -0.0000000041     0.0000000045    -0.4893467260
    3      H       1.3034619827    -0.8879703095     0.8866216989
    4      H       1.3034615443     0.8879703948     0.8866213201
    5      H       1.9883933395     0.0000000955    -0.4745305840
    6      C      -1.1867337123     0.0000001443     0.2637062649
    7      H      -0.0000006131    -0.8724833943    -1.1472226000
    8      H       0.0000001900     0.8724833038    -1.1472227324
    9      H      -1.3034615386    -0.8879705103     0.8866211279
   10      H      -1.9883930882     0.0000006955    -0.4745307248
   11      H      -1.3034619560     0.8879703658     0.8866217583
 ----------------------------------------------------------------

    7    -119.0788727318      4.85E-06 Convergence criterion met
    6    -119.1239335861      3.12E-06 Convergence criterion met
 Total energy in the final basis set = -119.12393359

                    Orbital Energies (a.u.)
 --------------------------------------------------------------

 Alpha MOs
 -- Occupied --
-10.2541 -10.2536 -10.2533  -0.9172  -0.7887  -0.6673  -0.5667  -0.5394
 -0.5046  -0.4662  -0.4175  -0.4102  -0.3949

                    Cartesian Multipole Moments
 -----------------------------------------------------------------
    Charge (ESU x 10^10)
                -0.0000
    Dipole Moment (Debye)
         X      -0.0000      Y       0.0000      Z      -0.1684
       Tot       0.1684
    Quadrupole Moments (Debye-Ang)
        XX     -22.8030     XY      -0.0000     YY     -21.1020
        XZ       0.0000     YZ      -0.0000     ZZ     -21.7007

 Total job time:  35.08s(wall), 98.29s(cpu)
        *  Thank you very much for using Q-Chem.  Have a nice day.  *
