 Q-Chem 5.2 (devel), Q-Chem, Inc., Pleasanton, CA (2019)
 Q-Chem 5.2.2 for Intel X86 EM64T Linux

User input:
--------------------------------------------------------------
$rem
   JOBTYPE  sp
   EXCHANGE   omegaB97X-D
   BASIS   6-311+G(2df,2pd)
   max_scf_cycles   250
   geom_opt_max_cycles   1500
   basis2 6-31G*
   scf_algorithm rca_diis
   SYM_IGNORE  TRUE
   print_input   true
   geom_opt_dmax   80
   pop_mulliken false
   XC_GRID 000075000302
$end

$molecule
0 1
C       1.2667443864     0.0655422909     0.2451811360
C       -0.0000001915     -0.2295673328     -0.5491684316
H       1.7547928475     -0.8369771421     0.6158443704
H       1.0072845666     0.6791725801     1.1114240086
H       1.9933332371     0.6205876922     -0.3490601184
C       -1.2667442179     0.0655460712     0.2451803990
H       -0.0000014539     -1.2526460725     -0.9332436479
H       0.0000009677     0.4255461696     -1.4233185629
H       -1.7547841546     -0.8369723803     0.6158576737
H       -1.9933389518     0.6205781632     -0.3490659464
H       -1.0072870962     0.6791906264     1.1114141383
--------------------------------------------------------------

             Standard Nuclear Orientation (Angstroms)
    I     Atom           X                Y                Z
 ----------------------------------------------------------------
    1      C       1.2667443864     0.0655422909     0.2451811360
    2      C      -0.0000001915    -0.2295673328    -0.5491684316
    3      H       1.7547928475    -0.8369771421     0.6158443704
    4      H       1.0072845666     0.6791725801     1.1114240086
    5      H       1.9933332371     0.6205876922    -0.3490601184
    6      C      -1.2667442179     0.0655460712     0.2451803990
    7      H      -0.0000014539    -1.2526460725    -0.9332436479
    8      H       0.0000009677     0.4255461696    -1.4233185629
    9      H      -1.7547841546    -0.8369723803     0.6158576737
   10      H      -1.9933389518     0.6205781632    -0.3490659464
   11      H      -1.0072870962     0.6791906264     1.1114141383
 ----------------------------------------------------------------

    7    -119.0925188862      4.19E-06 Convergence criterion met
    6    -119.1359379830      4.02E-06 Convergence criterion met
 Total energy in the final basis set = -119.13593798

                    Orbital Energies (a.u.)
 --------------------------------------------------------------

 Alpha MOs
 -- Occupied --
-10.2720 -10.2636 -10.2636  -0.8817  -0.7759  -0.6784  -0.5446  -0.5298
 -0.4762  -0.4662  -0.4206  -0.4158  -0.3996

                    Cartesian Multipole Moments
 -----------------------------------------------------------------
    Charge (ESU x 10^10)
                 0.0000
    Dipole Moment (Debye)
         X      -0.0000      Y      -0.0115      Z      -0.0895
       Tot       0.0902
    Quadrupole Moments (Debye-Ang)
        XX     -22.3117     XY      -0.0000     YY     -21.2878
        XZ      -0.0000     YZ      -0.2062     ZZ     -21.8434

 Total job time:  34.81s(wall), 97.39s(cpu)
        *  Thank you very much for using Q-Chem.  Have a nice day.  *
