 Q-Chem 5.2 (devel), Q-Chem, Inc., Pleasanton, CA (2019)
 Q-Chem 5.2.2 for Intel X86 EM64T Linux

User input:
--------------------------------------------------------------
$rem
   JOBTYPE  sp
   EXCHANGE   omegaB97X-D
   BASIS   6-311+G(2df,2pd)
   max_scf_cycles   250
   geom_opt_max_cycles   1500
   basis2 6-31G*
   scf_algorithm rca_diis
   SYM_IGNORE  TRUE
   print_input   true
   geom_opt_dmax   80
   pop_mulliken false
   XC_GRID 000075000302
$end

$molecule
0 1
C       1.0663955098     -0.6844265909     0.2577375292
C       0.0000036487     0.0000147277     -0.5890601906
H       1.7422335442     0.0731178717     0.6480371405
H       1.6684101600     -1.4039278890     -0.3091277812
H       0.6292586537     -1.2036927738     1.1112042346
C       -1.0664003050     0.6844173181     0.2577539388
H       -0.3559480554     -0.7997325754     -1.2428629356
H       0.3559642398     0.7997934269     -1.2428209054
H       -1.6684877846     1.4038566660     -0.3091106881
H       -0.6292594075     1.2037378481     1.1111856068
H       -1.7421702644     -0.0731573633     0.6481090697
--------------------------------------------------------------

             Standard Nuclear Orientation (Angstroms)
    I     Atom           X                Y                Z
 ----------------------------------------------------------------
    1      C       1.0663955098    -0.6844265909     0.2577375292
    2      C       0.0000036487     0.0000147277    -0.5890601906
    3      H       1.7422335442     0.0731178717     0.6480371405
    4      H       1.6684101600    -1.4039278890    -0.3091277812
    5      H       0.6292586537    -1.2036927738     1.1112042346
    6      C      -1.0664003050     0.6844173181     0.2577539388
    7      H      -0.3559480554    -0.7997325754    -1.2428629356
    8      H       0.3559642398     0.7997934269    -1.2428209054
    9      H      -1.6684877846     1.4038566660    -0.3091106881
   10      H      -0.6292594075     1.2037378481     1.1111856068
   11      H      -1.7421702644    -0.0731573633     0.6481090697
 ----------------------------------------------------------------

    7    -119.0961580340      4.60E-06 Convergence criterion met
    6    -119.1393344347      4.00E-06 Convergence criterion met
 Total energy in the final basis set = -119.13933443

                    Orbital Energies (a.u.)
 --------------------------------------------------------------

 Alpha MOs
 -- Occupied --
-10.2733 -10.2655 -10.2655  -0.8819  -0.7775  -0.6778  -0.5464  -0.5254
 -0.4830  -0.4657  -0.4250  -0.4163  -0.3961

                    Cartesian Multipole Moments
 -----------------------------------------------------------------
    Charge (ESU x 10^10)
                -0.0000
    Dipole Moment (Debye)
         X       0.0000      Y       0.0000      Z      -0.0566
       Tot       0.0566
    Quadrupole Moments (Debye-Ang)
        XX     -22.2597     XY       0.1501     YY     -21.2610
        XZ       0.0000     YZ       0.0000     ZZ     -21.8941

 Total job time:  40.50s(wall), 112.84s(cpu)
        *  Thank you very much for using Q-Chem.  Have a nice day.  *
