 Q-Chem 5.2 (devel), Q-Chem, Inc., Pleasanton, CA (2019)
 Q-Chem 5.2.2 for Intel X86 EM64T Linux

User input:
--------------------------------------------------------------
$rem
   JOBTYPE  sp
   EXCHANGE   omegaB97X-D
   BASIS   6-311+G(2df,2pd)
   max_scf_cycles   250
   geom_opt_max_cycles   1500
   basis2 6-31G*
   scf_algorithm rca_diis
   SYM_IGNORE  TRUE
   print_input   true
   geom_opt_dmax   80
   pop_mulliken false
   XC_GRID 000075000302
$end

$molecule
0 1
C       1.2139719630     -0.0000000828     0.2621819046
C       -0.0000000023     0.0000000029     -0.5216163666
H       1.3049239614     -0.8857850441     0.8929999102
H       1.3049236710     0.8857850996     0.8929996512
H       2.0493146055     0.0000000648     -0.4380652974
C       -1.2139719058     0.0000000906     0.2621819381
H       -0.0000004050     -0.8729641675     -1.1787853575
H       0.0000001047     0.8729641070     -1.1787854459
H       -1.3049236688     -0.8857851784     0.8929995249
H       -2.0493144424     0.0000006915     -0.4380653947
H       -1.3049239418     0.8857850822     0.8929999520
--------------------------------------------------------------

             Standard Nuclear Orientation (Angstroms)
    I     Atom           X                Y                Z
 ----------------------------------------------------------------
    1      C       1.2139719630    -0.0000000828     0.2621819046
    2      C      -0.0000000023     0.0000000029    -0.5216163666
    3      H       1.3049239614    -0.8857850441     0.8929999102
    4      H       1.3049236710     0.8857850996     0.8929996512
    5      H       2.0493146055     0.0000000648    -0.4380652974
    6      C      -1.2139719058     0.0000000906     0.2621819381
    7      H      -0.0000004050    -0.8729641675    -1.1787853575
    8      H       0.0000001047     0.8729641070    -1.1787854459
    9      H      -1.3049236688    -0.8857851784     0.8929995249
   10      H      -2.0493144424     0.0000006915    -0.4380653947
   11      H      -1.3049239418     0.8857850822     0.8929999520
 ----------------------------------------------------------------

    7    -119.0927614313      4.67E-06 Convergence criterion met
    6    -119.1368714248      3.37E-06 Convergence criterion met
 Total energy in the final basis set = -119.13687142

                    Orbital Energies (a.u.)
 --------------------------------------------------------------

 Alpha MOs
 -- Occupied --
-10.2607 -10.2576 -10.2575  -0.9042  -0.7841  -0.6706  -0.5591  -0.5335
 -0.4968  -0.4653  -0.4183  -0.4137  -0.3993

                    Cartesian Multipole Moments
 -----------------------------------------------------------------
    Charge (ESU x 10^10)
                -0.0000
    Dipole Moment (Debye)
         X      -0.0000      Y       0.0000      Z      -0.1420
       Tot       0.1420
    Quadrupole Moments (Debye-Ang)
        XX     -22.5922     XY      -0.0000     YY     -21.1874
        XZ       0.0000     YZ      -0.0000     ZZ     -21.7513

 Total job time:  34.57s(wall), 96.84s(cpu)
        *  Thank you very much for using Q-Chem.  Have a nice day.  *
