 Q-Chem 5.2 (devel), Q-Chem, Inc., Pleasanton, CA (2019)
 Q-Chem 5.2.2 for Intel X86 EM64T Linux

User input:
--------------------------------------------------------------
$rem
   JOBTYPE  sp
   EXCHANGE   omegaB97X-D
   BASIS   6-311+G(2df,2pd)
   max_scf_cycles   250
   geom_opt_max_cycles   1500
   basis2 6-31G*
   scf_algorithm rca_diis
   SYM_IGNORE  TRUE
   print_input   true
   geom_opt_dmax   80
   pop_mulliken false
   XC_GRID 000075000302
$end

$molecule
0 1
C       1.2600424812     -0.1345032960     0.2611698376
C       0.0000001444     0.0000030516     -0.5855423517
H       1.5940099044     -1.1728750031     0.2866811211
H       1.0810209092     0.1789731575     1.2924980692
H       2.0773511117     0.4684646985     -0.1357682348
C       -1.2600423445     0.1345008322     0.2611710369
H       -0.0673047804     -0.8713277085     -1.2412932102
H       0.0673049310     0.8713405746     -1.2412844710
H       -1.0810155765     -0.1789635985     1.2925018016
H       -2.0773438361     -0.4684802911     -0.1357618330
H       -1.5940230049     1.1728682489     0.2866732532
--------------------------------------------------------------

             Standard Nuclear Orientation (Angstroms)
    I     Atom           X                Y                Z
 ----------------------------------------------------------------
    1      C       1.2600424812    -0.1345032960     0.2611698376
    2      C       0.0000001444     0.0000030516    -0.5855423517
    3      H       1.5940099044    -1.1728750031     0.2866811211
    4      H       1.0810209092     0.1789731575     1.2924980692
    5      H       2.0773511117     0.4684646985    -0.1357682348
    6      C      -1.2600423445     0.1345008322     0.2611710369
    7      H      -0.0673047804    -0.8713277085    -1.2412932102
    8      H       0.0673049310     0.8713405746    -1.2412844710
    9      H      -1.0810155765    -0.1789635985     1.2925018016
   10      H      -2.0773438361    -0.4684802911    -0.1357618330
   11      H      -1.5940230049     1.1728682489     0.2866732532
 ----------------------------------------------------------------

    7    -119.0937216094      4.27E-06 Convergence criterion met
    6    -119.1369839071      3.96E-06 Convergence criterion met
 Total energy in the final basis set = -119.13698391

                    Orbital Energies (a.u.)
 --------------------------------------------------------------

 Alpha MOs
 -- Occupied --
-10.2718 -10.2637 -10.2637  -0.8810  -0.7764  -0.6776  -0.5444  -0.5268
 -0.4771  -0.4700  -0.4209  -0.4137  -0.3991

                    Cartesian Multipole Moments
 -----------------------------------------------------------------
    Charge (ESU x 10^10)
                 0.0000
    Dipole Moment (Debye)
         X      -0.0000      Y       0.0000      Z      -0.0896
       Tot       0.0896
    Quadrupole Moments (Debye-Ang)
        XX     -22.3482     XY       0.0876     YY     -21.2364
        XZ       0.0000     YZ       0.0000     ZZ     -21.8427

 Total job time:  34.39s(wall), 96.08s(cpu)
        *  Thank you very much for using Q-Chem.  Have a nice day.  *
