 Q-Chem 5.2 (devel), Q-Chem, Inc., Pleasanton, CA (2019)
 Q-Chem 5.2.2 for Intel X86 EM64T Linux

User input:
--------------------------------------------------------------
$rem
   JOBTYPE  sp
   EXCHANGE   omegaB97X-D
   BASIS   6-311+G(2df,2pd)
   max_scf_cycles   250
   geom_opt_max_cycles   1500
   basis2 6-31G*
   scf_algorithm rca_diis
   SYM_IGNORE  TRUE
   print_input   true
   geom_opt_dmax   80
   pop_mulliken false
   XC_GRID 000075000302
$end

$molecule
0 1
C       1.2008823528     0.4045224876     0.2668184494
C       0.0000016990     -0.0000091286     -0.5799179726
H       1.0345130478     1.3487473361     0.7943381749
H       2.0730304948     0.5352084027     -0.3728184482
H       1.4456212394     -0.3577651731     1.0071886701
C       -1.2008826953     -0.4045155384     0.2668249925
H       0.2054741157     -0.8499183471     -1.2350461794
H       -0.2054670316     0.8498798914     -1.2350728390
H       -2.0730437189     -0.5351513647     -0.3728055307
H       -1.4455865244     0.3577627910     1.0072163418
H       -1.0345430400     -1.3487606908     0.7943193600
--------------------------------------------------------------

             Standard Nuclear Orientation (Angstroms)
    I     Atom           X                Y                Z
 ----------------------------------------------------------------
    1      C       1.2008823528     0.4045224876     0.2668184494
    2      C       0.0000016990    -0.0000091286    -0.5799179726
    3      H       1.0345130478     1.3487473361     0.7943381749
    4      H       2.0730304948     0.5352084027    -0.3728184482
    5      H       1.4456212394    -0.3577651731     1.0071886701
    6      C      -1.2008826953    -0.4045155384     0.2668249925
    7      H       0.2054741157    -0.8499183471    -1.2350461794
    8      H      -0.2054670316     0.8498798914    -1.2350728390
    9      H      -2.0730437189    -0.5351513647    -0.3728055307
   10      H      -1.4455865244     0.3577627910     1.0072163418
   11      H      -1.0345430400    -1.3487606908     0.7943193600
 ----------------------------------------------------------------

    7    -119.1011827709      4.60E-06 Convergence criterion met
    5    -119.1441288491      9.98E-06 Convergence criterion met
 Total energy in the final basis set = -119.14412885

                    Orbital Energies (a.u.)
 --------------------------------------------------------------

 Alpha MOs
 -- Occupied --
-10.2744 -10.2646 -10.2646  -0.8810  -0.7775  -0.6773  -0.5456  -0.5226
 -0.4848  -0.4652  -0.4192  -0.4180  -0.4030

                    Cartesian Multipole Moments
 -----------------------------------------------------------------
    Charge (ESU x 10^10)
                -0.0000
    Dipole Moment (Debye)
         X      -0.0000      Y      -0.0000      Z      -0.1020
       Tot       0.1020
    Quadrupole Moments (Debye-Ang)
        XX     -22.2919     XY      -0.1287     YY     -21.2983
        XZ      -0.0000     YZ      -0.0000     ZZ     -21.7925

 Total job time:  31.52s(wall), 87.51s(cpu)
        *  Thank you very much for using Q-Chem.  Have a nice day.  *
