 Q-Chem 5.2 (devel), Q-Chem, Inc., Pleasanton, CA (2019)
 Q-Chem 5.2.2 for Intel X86 EM64T Linux

User input:
--------------------------------------------------------------
$rem
   JOBTYPE  sp
   EXCHANGE   omegaB97X-D
   BASIS   6-311+G(2df,2pd)
   max_scf_cycles   250
   geom_opt_max_cycles   1500
   basis2 6-31G*
   scf_algorithm rca_diis
   SYM_IGNORE  TRUE
   print_input   true
   geom_opt_dmax   80
   pop_mulliken false
   XC_GRID 000075000302
$end

$molecule
0 1
C       1.2462257752     0.1296110150     0.2505721067
C       -0.0000000859     -0.1408869533     -0.5839777705
H       1.1351909216     -0.8164728840     0.7972652586
H       1.4311207342     0.9339836860     0.9555226689
H       2.1275345803     -0.1485114621     -0.3282754522
C       -1.2462258228     0.1296112904     0.2505719521
H       0.0000004523     -0.9014628218     -1.3651455175
H       -0.0000004246     0.8451288365     -1.0600006495
H       -1.1351913989     -0.8164726689     0.7972652087
H       -2.1275347061     -0.1485114686     -0.3282753399
H       -1.4311200858     0.9339840968     0.9555225535
--------------------------------------------------------------

             Standard Nuclear Orientation (Angstroms)
    I     Atom           X                Y                Z
 ----------------------------------------------------------------
    1      C       1.2462257752     0.1296110150     0.2505721067
    2      C      -0.0000000859    -0.1408869533    -0.5839777705
    3      H       1.1351909216    -0.8164728840     0.7972652586
    4      H       1.4311207342     0.9339836860     0.9555226689
    5      H       2.1275345803    -0.1485114621    -0.3282754522
    6      C      -1.2462258228     0.1296112904     0.2505719521
    7      H       0.0000004523    -0.9014628218    -1.3651455175
    8      H      -0.0000004246     0.8451288365    -1.0600006495
    9      H      -1.1351913989    -0.8164726689     0.7972652087
   10      H      -2.1275347061    -0.1485114686    -0.3282753399
   11      H      -1.4311200858     0.9339840968     0.9555225535
 ----------------------------------------------------------------

    7    -119.0314440653      3.71E-06 Convergence criterion met
    5    -119.0770763570      9.81E-06 Convergence criterion met
 Total energy in the final basis set = -119.07707636

                    Orbital Energies (a.u.)
 --------------------------------------------------------------

 Alpha MOs
 -- Occupied --
-10.2790 -10.2659 -10.2659  -0.8932  -0.7809  -0.6782  -0.5570  -0.5270
 -0.5073  -0.4598  -0.4372  -0.4088  -0.3445

                    Cartesian Multipole Moments
 -----------------------------------------------------------------
    Charge (ESU x 10^10)
                -0.0000
    Dipole Moment (Debye)
         X      -0.0000      Y      -0.0584      Z      -0.1219
       Tot       0.1352
    Quadrupole Moments (Debye-Ang)
        XX     -22.4872     XY       0.0000     YY     -21.1481
        XZ      -0.0000     YZ       1.7659     ZZ     -22.2344

 Total job time:  31.52s(wall), 87.51s(cpu)
        *  Thank you very much for using Q-Chem.  Have a nice day.  *
