 Q-Chem 5.2 (devel), Q-Chem, Inc., Pleasanton, CA (2019)
 Q-Chem 5.2.2 for Intel X86 EM64T Linux

User input:
--------------------------------------------------------------
$rem
   JOBTYPE  sp
   EXCHANGE   omegaB97X-D
   BASIS   6-311+G(2df,2pd)
   max_scf_cycles   250
   geom_opt_max_cycles   1500
   basis2 6-31G*
   scf_algorithm rca_diis
   SYM_IGNORE  TRUE
   print_input   true
   geom_opt_dmax   80
   pop_mulliken false
   XC_GRID 000075000302
$end

$molecule
0 1
C       1.2631060641     0.1867115000     0.1353193455
C       -0.0000015859     -0.5658138532     -0.2659187841
H       2.2009118401     -0.1643236379     -0.2928453921
H       1.3292488379     0.0707540854     1.2218494132
H       1.1751993420     1.2534776431     -0.0730740711
C       -1.2631047792     0.1867204059     0.1353154122
H       -0.0000053855     -1.6309574311     -0.0198125682
H       0.0000003851     -0.4965125747     -1.3556991243
H       -2.2009150699     -0.1643457605     -0.2928151761
H       -1.1752139747     1.2534781496     -0.0731264524
H       -1.3292257346     0.0708121395     1.2218524163
--------------------------------------------------------------

             Standard Nuclear Orientation (Angstroms)
    I     Atom           X                Y                Z
 ----------------------------------------------------------------
    1      C       1.2631060641     0.1867115000     0.1353193455
    2      C      -0.0000015859    -0.5658138532    -0.2659187841
    3      H       2.2009118401    -0.1643236379    -0.2928453921
    4      H       1.3292488379     0.0707540854     1.2218494132
    5      H       1.1751993420     1.2534776431    -0.0730740711
    6      C      -1.2631047792     0.1867204059     0.1353154122
    7      H      -0.0000053855    -1.6309574311    -0.0198125682
    8      H       0.0000003851    -0.4965125747    -1.3556991243
    9      H      -2.2009150699    -0.1643457605    -0.2928151761
   10      H      -1.1752139747     1.2534781496    -0.0731264524
   11      H      -1.3292257346     0.0708121395     1.2218524163
 ----------------------------------------------------------------

    7    -119.0943445613      4.74E-06 Convergence criterion met
    6    -119.1375881639      4.15E-06 Convergence criterion met
 Total energy in the final basis set = -119.13758816

                    Orbital Energies (a.u.)
 --------------------------------------------------------------

 Alpha MOs
 -- Occupied --
-10.2741 -10.2662 -10.2662  -0.8835  -0.7767  -0.6783  -0.5482  -0.5290
 -0.4764  -0.4635  -0.4277  -0.4259  -0.3890

                    Cartesian Multipole Moments
 -----------------------------------------------------------------
    Charge (ESU x 10^10)
                 0.0000
    Dipole Moment (Debye)
         X      -0.0000      Y      -0.0323      Z      -0.0769
       Tot       0.0834
    Quadrupole Moments (Debye-Ang)
        XX     -21.9344     XY       0.0000     YY     -21.4587
        XZ      -0.0000     YZ      -0.4695     ZZ     -22.0188

 Total job time:  34.62s(wall), 97.06s(cpu)
        *  Thank you very much for using Q-Chem.  Have a nice day.  *
