 Q-Chem 5.2 (devel), Q-Chem, Inc., Pleasanton, CA (2019)
 Q-Chem 5.2.2 for Intel X86 EM64T Linux

User input:
--------------------------------------------------------------
$rem
   JOBTYPE  sp
   EXCHANGE   omegaB97X-D
   BASIS   6-311+G(2df,2pd)
   max_scf_cycles   250
   geom_opt_max_cycles   1500
   basis2 6-31G*
   scf_algorithm rca_diis
   SYM_IGNORE  TRUE
   print_input   true
   geom_opt_dmax   80
   pop_mulliken false
   XC_GRID 000075000302
$end

$molecule
0 1
C       1.2683201236     0.0000000014     0.2689164657
C       0.0000001353     -0.0000000058     -0.5623852250
H       1.3057455148     -0.8850300817     0.9174348864
H       1.3057455411     0.8850300587     0.9174348239
H       2.1484486470     -0.0000000156     -0.3366422052
C       -1.2683197717     0.0000000918     0.2689162990
H       0.0000001535     -0.9893625853     -1.3154290178
H       0.0000001277     0.9893628118     -1.3154292221
H       -1.3057453896     -0.8850317228     0.9174360286
H       -2.1484498054     0.0000007584     -0.3366433822
H       -1.3057453371     0.8850313550     0.9174355677
--------------------------------------------------------------

             Standard Nuclear Orientation (Angstroms)
    I     Atom           X                Y                Z
 ----------------------------------------------------------------
    1      C       1.2683201236     0.0000000014     0.2689164657
    2      C       0.0000001353    -0.0000000058    -0.5623852250
    3      H       1.3057455148    -0.8850300817     0.9174348864
    4      H       1.3057455411     0.8850300587     0.9174348239
    5      H       2.1484486470    -0.0000000156    -0.3366422052
    6      C      -1.2683197717     0.0000000918     0.2689162990
    7      H       0.0000001535    -0.9893625853    -1.3154290178
    8      H       0.0000001277     0.9893628118    -1.3154292221
    9      H      -1.3057453896    -0.8850317228     0.9174360286
   10      H      -2.1484498054     0.0000007584    -0.3366433822
   11      H      -1.3057453371     0.8850313550     0.9174355677
 ----------------------------------------------------------------

    7    -119.0827108702      4.66E-06 Convergence criterion met
    6    -119.1248538225      4.29E-06 Convergence criterion met
 Total energy in the final basis set = -119.12485382

                    Orbital Energies (a.u.)
 --------------------------------------------------------------

 Alpha MOs
 -- Occupied --
-10.3045 -10.2669 -10.2669  -0.8784  -0.7821  -0.6590  -0.5358  -0.5289
 -0.4853  -0.4647  -0.4273  -0.4104  -0.3897

                    Cartesian Multipole Moments
 -----------------------------------------------------------------
    Charge (ESU x 10^10)
                -0.0000
    Dipole Moment (Debye)
         X       0.0000      Y       0.0000      Z       0.1312
       Tot       0.1312
    Quadrupole Moments (Debye-Ang)
        XX     -21.9858     XY      -0.0000     YY     -21.6013
        XZ       0.0000     YZ      -0.0000     ZZ     -22.3429

 Total job time:  34.84s(wall), 97.46s(cpu)
        *  Thank you very much for using Q-Chem.  Have a nice day.  *
