 Q-Chem 5.2 (devel), Q-Chem, Inc., Pleasanton, CA (2019)
 Q-Chem 5.2.2 for Intel X86 EM64T Linux

User input:
--------------------------------------------------------------
$rem
   JOBTYPE  sp
   EXCHANGE   omegaB97X-D
   BASIS   6-311+G(2df,2pd)
   max_scf_cycles   250
   geom_opt_max_cycles   1500
   basis2 6-31G*
   scf_algorithm rca_diis
   SYM_IGNORE  TRUE
   print_input   true
   geom_opt_dmax   80
   pop_mulliken false
   XC_GRID 000075000302
$end

$molecule
0 1
C       1.1481493079     -0.5361465615     0.2648609696
C       0.0000023642     0.0000121720     -0.5819040293
H       2.0805277621     -0.0819355492     -0.0659701761
H       1.2616554111     -1.6220446334     0.1797678481
H       1.0185963151     -0.2901975674     1.3193060155
C       -1.1481511596     0.5361399130     0.2648719296
H       -0.2751572173     -0.8303509441     -1.2365336903
H       0.2751665275     0.8304003338     -1.2365009273
H       -1.2617180736     1.6220284061     0.1797477989
H       -1.0185582030     0.2902255526     1.3193202051
H       -2.0805130951     0.0818695441     -0.0659209249
--------------------------------------------------------------

             Standard Nuclear Orientation (Angstroms)
    I     Atom           X                Y                Z
 ----------------------------------------------------------------
    1      C       1.1481493079    -0.5361465615     0.2648609696
    2      C       0.0000023642     0.0000121720    -0.5819040293
    3      H       2.0805277621    -0.0819355492    -0.0659701761
    4      H       1.2616554111    -1.6220446334     0.1797678481
    5      H       1.0185963151    -0.2901975674     1.3193060155
    6      C      -1.1481511596     0.5361399130     0.2648719296
    7      H      -0.2751572173    -0.8303509441    -1.2365336903
    8      H       0.2751665275     0.8304003338    -1.2365009273
    9      H      -1.2617180736     1.6220284061     0.1797477989
   10      H      -1.0185582030     0.2902255526     1.3193202051
   11      H      -2.0805130951     0.0818695441    -0.0659209249
 ----------------------------------------------------------------

    7    -119.0891823580      4.29E-06 Convergence criterion met
    6    -119.1326300515      3.94E-06 Convergence criterion met
 Total energy in the final basis set = -119.13263005

                    Orbital Energies (a.u.)
 --------------------------------------------------------------

 Alpha MOs
 -- Occupied --
-10.2715 -10.2633 -10.2633  -0.8811  -0.7766  -0.6775  -0.5444  -0.5273
 -0.4781  -0.4702  -0.4222  -0.4156  -0.3917

                    Cartesian Multipole Moments
 -----------------------------------------------------------------
    Charge (ESU x 10^10)
                -0.0000
    Dipole Moment (Debye)
         X      -0.0000      Y      -0.0000      Z      -0.0975
       Tot       0.0975
    Quadrupole Moments (Debye-Ang)
        XX     -22.4242     XY       0.2662     YY     -21.2137
        XZ       0.0000     YZ       0.0000     ZZ     -21.8179

 Total job time:  40.37s(wall), 110.97s(cpu)
        *  Thank you very much for using Q-Chem.  Have a nice day.  *
