 Q-Chem 5.2 (devel), Q-Chem, Inc., Pleasanton, CA (2019)
 Q-Chem 5.2.2 for Intel X86 EM64T Linux

User input:
--------------------------------------------------------------
$rem
   JOBTYPE  sp
   EXCHANGE   omegaB97X-D
   BASIS   6-311+G(2df,2pd)
   max_scf_cycles   250
   geom_opt_max_cycles   1500
   basis2 6-31G*
   scf_algorithm rca_diis
   SYM_IGNORE  TRUE
   print_input   true
   geom_opt_dmax   80
   pop_mulliken false
   XC_GRID 000075000302
$end

$molecule
0 1
C       1.2895706237     -0.0000000276     0.2744116097
C       0.0187914317     -0.0000001218     -0.5873568959
H       1.3147168168     -0.7717356403     0.8349965909
H       1.3147167295     0.7717355096     0.8349965803
H       2.0919660609     0.0000000165     -0.2802945780
C       -1.2446906737     -0.0000003142     0.2443799082
H       0.0240929686     -0.8738711291     -1.2431565192
H       0.0240928255     0.8738711591     -1.2431566564
H       -1.2980363455     -0.9889687564     0.9730266596
H       -2.2371840041     0.0000005039     -0.4398291530
H       -1.2980364940     0.9889694663     0.9730274727
--------------------------------------------------------------

             Standard Nuclear Orientation (Angstroms)
    I     Atom           X                Y                Z
 ----------------------------------------------------------------
    1      C       1.2895706237    -0.0000000276     0.2744116097
    2      C       0.0187914317    -0.0000001218    -0.5873568959
    3      H       1.3147168168    -0.7717356403     0.8349965909
    4      H       1.3147167295     0.7717355096     0.8349965803
    5      H       2.0919660609     0.0000000165    -0.2802945780
    6      C      -1.2446906737    -0.0000003142     0.2443799082
    7      H       0.0240929686    -0.8738711291    -1.2431565192
    8      H       0.0240928255     0.8738711591    -1.2431566564
    9      H      -1.2980363455    -0.9889687564     0.9730266596
   10      H      -2.2371840041     0.0000005039    -0.4398291530
   11      H      -1.2980364940     0.9889694663     0.9730274727
 ----------------------------------------------------------------

    7    -119.0357595727      5.86E-06 Convergence criterion met
    6    -119.0811877501      4.06E-06 Convergence criterion met
 Total energy in the final basis set = -119.08118775

                    Orbital Energies (a.u.)
 --------------------------------------------------------------

 Alpha MOs
 -- Occupied --
-10.3039 -10.2753 -10.2217  -0.8875  -0.7854  -0.6725  -0.5517  -0.5302
 -0.4823  -0.4679  -0.4285  -0.4062  -0.4023

                    Cartesian Multipole Moments
 -----------------------------------------------------------------
    Charge (ESU x 10^10)
                 0.0000
    Dipole Moment (Debye)
         X       0.2927      Y      -0.0000      Z      -0.1171
       Tot       0.3153
    Quadrupole Moments (Debye-Ang)
        XX     -22.1444     XY       0.0000     YY     -21.3502
        XZ       0.2943     YZ      -0.0000     ZZ     -21.8016

 Total job time:  35.54s(wall), 98.73s(cpu)
        *  Thank you very much for using Q-Chem.  Have a nice day.  *
