 Q-Chem 5.2 (devel), Q-Chem, Inc., Pleasanton, CA (2019)
 Q-Chem 5.2.2 for Intel X86 EM64T Linux

User input:
--------------------------------------------------------------
$rem
   JOBTYPE  sp
   EXCHANGE   omegaB97X-D
   BASIS   6-311+G(2df,2pd)
   max_scf_cycles   250
   geom_opt_max_cycles   1500
   basis2 6-31G*
   scf_algorithm rca_diis
   SYM_IGNORE  TRUE
   print_input   true
   geom_opt_dmax   80
   pop_mulliken false
   XC_GRID 000075000302
$end

$molecule
0 1
C       1.2748999383     0.0000008927     0.2267050250
C       -0.0000000824     0.0000009832     -0.6121452122
H       1.3081216450     -0.9221336516     0.9092715555
H       1.3081217134     0.9221322145     0.9092695314
H       2.0671922643     0.0000006430     -0.3155543887
C       -1.2749004745     0.0000010542     0.2267044844
H       -0.0000000334     -0.8567975500     -1.2530979195
H       -0.0000000357     0.8567965957     -1.2530960650
H       -1.3081222637     -0.9221347658     0.9092720968
H       -2.0671904899     0.0000014505     -0.3155535375
H       -1.3081222421     0.9221327996     0.9092694488
--------------------------------------------------------------

             Standard Nuclear Orientation (Angstroms)
    I     Atom           X                Y                Z
 ----------------------------------------------------------------
    1      C       1.2748999383     0.0000008927     0.2267050250
    2      C      -0.0000000824     0.0000009832    -0.6121452122
    3      H       1.3081216450    -0.9221336516     0.9092715555
    4      H       1.3081217134     0.9221322145     0.9092695314
    5      H       2.0671922643     0.0000006430    -0.3155543887
    6      C      -1.2749004745     0.0000010542     0.2267044844
    7      H      -0.0000000334    -0.8567975500    -1.2530979195
    8      H      -0.0000000357     0.8567965957    -1.2530960650
    9      H      -1.3081222637    -0.9221347658     0.9092720968
   10      H      -2.0671904899     0.0000014505    -0.3155535375
   11      H      -1.3081222421     0.9221327996     0.9092694488
 ----------------------------------------------------------------

    7    -119.0672266892      5.67E-06 Convergence criterion met
    5    -119.1121582255      9.34E-06 Convergence criterion met
 Total energy in the final basis set = -119.11215823

                    Orbital Energies (a.u.)
 --------------------------------------------------------------

 Alpha MOs
 -- Occupied --
-10.2701 -10.2614 -10.2614  -0.8831  -0.7850  -0.6819  -0.5435  -0.5419
 -0.4812  -0.4497  -0.4320  -0.4176  -0.4042

                    Cartesian Multipole Moments
 -----------------------------------------------------------------
    Charge (ESU x 10^10)
                -0.0000
    Dipole Moment (Debye)
         X      -0.0000      Y       0.0000      Z      -0.2959
       Tot       0.2959
    Quadrupole Moments (Debye-Ang)
        XX     -21.8377     XY      -0.0000     YY     -21.3093
        XZ       0.0000     YZ      -0.0000     ZZ     -21.8801

 Total job time:  31.85s(wall), 88.43s(cpu)
        *  Thank you very much for using Q-Chem.  Have a nice day.  *
