 Q-Chem 5.3 (devel), Q-Chem, Inc., Pleasanton, CA (2020)
 Q-Chem 5.3.0 for Intel X86 EM64T Linux

User input:
--------------------------------------------------------------
$rem
   JOBTYPE  sp
   EXCHANGE   omegaB97X-D
   BASIS   6-311+G(2df,2pd)
   UNRESTRICTED   False
   max_scf_cycles   250
   geom_opt_max_cycles   1500
   basis2 6-31G*
   scf_algorithm rca_diis
   SYM_IGNORE  TRUE
   print_input   true
   geom_opt_dmax   80
   pop_mulliken false
   XC_GRID 000075000302
$end

$molecule
0 1
C       -5.3313855027     0.2095817899     0.1418090293
C       -3.9732924797     0.8098393871     0.4554953092
H       -6.1150046090     0.7288131786     0.6932950020
H       -5.3563222742     -0.8469497750     0.4130000769
H       -5.5556818499     0.2852263445     -0.9245143371
O       -3.5492053760     1.7468197628     -0.5164952968
H       -3.2267948336     0.0164439516     0.5766940868
H       -4.0121879312     1.3617321420     1.3943413530
H       -3.4829351436     1.3057132186     -1.3633152231
$end
--------------------------------------------------------------

             Standard Nuclear Orientation (Angstroms)
    I     Atom           X                Y                Z
 ----------------------------------------------------------------
    1      C      -5.3313855027     0.2095817899     0.1418090293
    2      C      -3.9732924797     0.8098393871     0.4554953092
    3      H      -6.1150046090     0.7288131786     0.6932950020
    4      H      -5.3563222742    -0.8469497750     0.4130000769
    5      H      -5.5556818499     0.2852263445    -0.9245143371
    6      O      -3.5492053760     1.7468197628    -0.5164952968
    7      H      -3.2267948336     0.0164439516     0.5766940868
    8      H      -4.0121879312     1.3617321420     1.3943413530
    9      H      -3.4829351436     1.3057132186    -1.3633152231
 ----------------------------------------------------------------

    6    -154.9778196821      9.94E-05 Convergence criterion met
    6    -155.0465712220      5.64E-06 Convergence criterion met
 Total energy in the final basis set = -155.04657122

                    Orbital Energies (a.u.)
 --------------------------------------------------------------

 Alpha MOs
 -- Occupied --
-19.2454 -10.3264 -10.2733  -1.1256  -0.8496  -0.7229  -0.5953  -0.5450
 -0.5241  -0.4717  -0.4573  -0.4090  -0.3612

                    Cartesian Multipole Moments
 -----------------------------------------------------------------
    Charge (ESU x 10^10)
                 0.0000
    Dipole Moment (Debye)
         X      -0.4734      Y      -1.6916      Z      -0.2465
       Tot       1.7738
    Quadrupole Moments (Debye-Ang)
        XX     -16.9159     XY       5.2679     YY     -25.2638
        XZ       0.3206     YZ       0.6535     ZZ     -17.0544

 Total job time:  10.91s(wall), 56.18s(cpu)
        *  Thank you very much for using Q-Chem.  Have a nice day.  *
