 Q-Chem 5.3 (devel), Q-Chem, Inc., Pleasanton, CA (2020)
 Q-Chem 5.3.0 for Intel X86 EM64T Linux

User input:
--------------------------------------------------------------
$rem
   JOBTYPE  sp
   EXCHANGE   omegaB97X-D
   BASIS   6-311+G(2df,2pd)
   UNRESTRICTED   False
   max_scf_cycles   250
   geom_opt_max_cycles   1500
   basis2 6-31G*
   scf_algorithm rca_diis
   SYM_IGNORE  TRUE
   print_input   true
   geom_opt_dmax   80
   pop_mulliken false
   XC_GRID 000075000302
$end

$molecule
0 1
C       -5.4899907269     0.2942269671     0.1727971655
C       -4.1555960314     1.0062172867     0.0479552423
H       -5.6839339110     -0.3114771830     -0.7122482800
H       -6.3010223421     1.0152492153     0.2858458782
H       -5.5032154681     -0.3617232295     1.0460845852
O       -3.0743998885     0.1154153270     -0.1521312476
H       -3.9778702910     1.6357642512     0.9274484925
H       -4.1574864355     1.6618626442     -0.8224791059
H       -2.2592949055     0.5616847210     0.0770372699
$end
--------------------------------------------------------------

             Standard Nuclear Orientation (Angstroms)
    I     Atom           X                Y                Z
 ----------------------------------------------------------------
    1      C      -5.4899907269     0.2942269671     0.1727971655
    2      C      -4.1555960314     1.0062172867     0.0479552423
    3      H      -5.6839339110    -0.3114771830    -0.7122482800
    4      H      -6.3010223421     1.0152492153     0.2858458782
    5      H      -5.5032154681    -0.3617232295     1.0460845852
    6      O      -3.0743998885     0.1154153270    -0.1521312476
    7      H      -3.9778702910     1.6357642512     0.9274484925
    8      H      -4.1574864355     1.6618626442    -0.8224791059
    9      H      -2.2592949055     0.5616847210     0.0770372699
 ----------------------------------------------------------------

    6    -154.9797819543      7.06E-05 Convergence criterion met
    6    -155.0489316786      6.17E-06 Convergence criterion met
 Total energy in the final basis set = -155.04893168

                    Orbital Energies (a.u.)
 --------------------------------------------------------------

 Alpha MOs
 -- Occupied --
-19.2449 -10.3271 -10.2716  -1.1252  -0.8497  -0.7096  -0.6096  -0.5548
 -0.4945  -0.4745  -0.4538  -0.4153  -0.3574

                    Cartesian Multipole Moments
 -----------------------------------------------------------------
    Charge (ESU x 10^10)
                 0.0000
    Dipole Moment (Debye)
         X       0.0318      Y       1.5668      Z       0.5900
       Tot       1.6745
    Quadrupole Moments (Debye-Ang)
        XX     -17.3292     XY      -4.6080     YY     -19.2859
        XZ      -1.5778     YZ       0.2413     ZZ     -20.2141

 Total job time:  10.75s(wall), 55.33s(cpu)
        *  Thank you very much for using Q-Chem.  Have a nice day.  *
