 Q-Chem 5.3 (devel), Q-Chem, Inc., Pleasanton, CA (2020)
 Q-Chem 5.3.0 for Intel X86 EM64T Linux

User input:
--------------------------------------------------------------
$rem
   JOBTYPE  sp
   EXCHANGE   omegaB97X-D
   BASIS   6-311+G(2df,2pd)
   UNRESTRICTED   False
   max_scf_cycles   250
   geom_opt_max_cycles   1500
   basis2 6-31G*
   scf_algorithm rca_diis
   SYM_IGNORE  TRUE
   print_input   true
   geom_opt_dmax   80
   pop_mulliken false
   XC_GRID 000075000302
$end

$molecule
0 1
C       -5.3389623413     0.3052119212     0.0551985675
C       -4.1279634974     1.2144277182     0.1548648049
H       -5.4011758027     -0.1405501890     -0.9373852038
H       -6.2562614030     0.8651299174     0.2435589760
H       -5.2841427978     -0.5013059717     0.7897733954
O       -2.9141299899     0.5458168013     -0.1316932034
H       -4.0852539246     1.6820359331     1.1452902924
H       -4.1977663898     2.0179006555     -0.5779988646
H       -2.9971538535     -0.3714467861     0.1287012356
$end
--------------------------------------------------------------

             Standard Nuclear Orientation (Angstroms)
    I     Atom           X                Y                Z
 ----------------------------------------------------------------
    1      C      -5.3389623413     0.3052119212     0.0551985675
    2      C      -4.1279634974     1.2144277182     0.1548648049
    3      H      -5.4011758027    -0.1405501890    -0.9373852038
    4      H      -6.2562614030     0.8651299174     0.2435589760
    5      H      -5.2841427978    -0.5013059717     0.7897733954
    6      O      -2.9141299899     0.5458168013    -0.1316932034
    7      H      -4.0852539246     1.6820359331     1.1452902924
    8      H      -4.1977663898     2.0179006555    -0.5779988646
    9      H      -2.9971538535    -0.3714467861     0.1287012356
 ----------------------------------------------------------------

    6    -154.9814549107      9.70E-05 Convergence criterion met
    6    -155.0500149585      5.50E-06 Convergence criterion met
 Total energy in the final basis set = -155.05001496

                    Orbital Energies (a.u.)
 --------------------------------------------------------------

 Alpha MOs
 -- Occupied --
-19.2451 -10.3270 -10.2795  -1.1256  -0.8514  -0.7275  -0.5843  -0.5500
 -0.5364  -0.4663  -0.4602  -0.4152  -0.3604

                    Cartesian Multipole Moments
 -----------------------------------------------------------------
    Charge (ESU x 10^10)
                 0.0000
    Dipole Moment (Debye)
         X      -1.6051      Y      -0.7146      Z       0.6473
       Tot       1.8724
    Quadrupole Moments (Debye-Ang)
        XX      -9.4042     XY       0.3083     YY     -18.6623
        XZ      -1.8632     YZ      -0.0682     ZZ     -20.1606

 Total job time:  10.93s(wall), 56.15s(cpu)
        *  Thank you very much for using Q-Chem.  Have a nice day.  *
