 Q-Chem 5.3 (devel), Q-Chem, Inc., Pleasanton, CA (2020)
 Q-Chem 5.3.0 for Intel X86 EM64T Linux

User input:
--------------------------------------------------------------
$rem
   JOBTYPE  sp
   EXCHANGE   omegaB97X-D
   BASIS   6-311+G(2df,2pd)
   UNRESTRICTED   False
   max_scf_cycles   250
   geom_opt_max_cycles   1500
   basis2 6-31G*
   scf_algorithm rca_diis
   SYM_IGNORE  TRUE
   print_input   true
   geom_opt_dmax   80
   pop_mulliken false
   XC_GRID 000075000302
$end

$molecule
0 1
C       -5.3687891398     0.2935819467     0.1262913628
C       -4.1284959216     1.1593212584     0.2499566432
H       -5.3301229332     -0.3008896847     -0.7863451041
H       -6.2676729850     0.9114975901     0.1015231364
H       -5.4563446759     -0.3880301976     0.9752998341
O       -2.9299619822     0.4070929166     0.2352341465
H       -4.1848955991     1.7757638475     1.1545238365
H       -4.0561740060     1.8387826545     -0.5989438896
H       -2.8803527571     -0.0799003316     -0.5872299656
$end
--------------------------------------------------------------

             Standard Nuclear Orientation (Angstroms)
    I     Atom           X                Y                Z
 ----------------------------------------------------------------
    1      C      -5.3687891398     0.2935819467     0.1262913628
    2      C      -4.1284959216     1.1593212584     0.2499566432
    3      H      -5.3301229332    -0.3008896847    -0.7863451041
    4      H      -6.2676729850     0.9114975901     0.1015231364
    5      H      -5.4563446759    -0.3880301976     0.9752998341
    6      O      -2.9299619822     0.4070929166     0.2352341465
    7      H      -4.1848955991     1.7757638475     1.1545238365
    8      H      -4.0561740060     1.8387826545    -0.5989438896
    9      H      -2.8803527571    -0.0799003316    -0.5872299656
 ----------------------------------------------------------------

    6    -154.9805287944      9.74E-05 Convergence criterion met
    6    -155.0490815805      5.73E-06 Convergence criterion met
 Total energy in the final basis set = -155.04908158

                    Orbital Energies (a.u.)
 --------------------------------------------------------------

 Alpha MOs
 -- Occupied --
-19.2449 -10.3278 -10.2747  -1.1258  -0.8498  -0.7225  -0.5945  -0.5497
 -0.5232  -0.4704  -0.4601  -0.4095  -0.3602

                    Cartesian Multipole Moments
 -----------------------------------------------------------------
    Charge (ESU x 10^10)
                 0.0000
    Dipole Moment (Debye)
         X      -1.3205      Y       0.0388      Z      -1.2036
       Tot       1.7871
    Quadrupole Moments (Debye-Ang)
        XX     -11.3117     XY      -1.7203     YY     -19.2944
        XZ       2.5578     YZ       0.7526     ZZ     -19.0281

 Total job time:  10.88s(wall), 55.82s(cpu)
        *  Thank you very much for using Q-Chem.  Have a nice day.  *
