 Q-Chem 5.3 (devel), Q-Chem, Inc., Pleasanton, CA (2020)
 Q-Chem 5.3.0 for Intel X86 EM64T Linux

User input:
--------------------------------------------------------------
$rem
   JOBTYPE  sp
   EXCHANGE   omegaB97X-D
   BASIS   6-311+G(2df,2pd)
   UNRESTRICTED   False
   max_scf_cycles   250
   geom_opt_max_cycles   1500
   basis2 6-31G*
   scf_algorithm rca_diis
   SYM_IGNORE  TRUE
   print_input   true
   geom_opt_dmax   80
   pop_mulliken false
   XC_GRID 000075000302
$end

$molecule
0 1
C       -5.3640532652     0.2797323481     0.1161278215
C       -4.0936390689     1.0646611319     0.3864230281
H       -5.3208410803     -0.6954698665     0.6008032433
H       -5.5024034893     0.1300252879     -0.9557268264
H       -6.2402177397     0.8112757482     0.4941144600
O       -3.2056047715     1.0686292180     -0.7153606055
H       -3.5933991789     0.6797383906     1.2825361527
H       -4.3295700926     2.1119025968     0.5739123052
H       -2.9530813135     0.1667251449     -0.9125195789
$end
--------------------------------------------------------------

             Standard Nuclear Orientation (Angstroms)
    I     Atom           X                Y                Z
 ----------------------------------------------------------------
    1      C      -5.3640532652     0.2797323481     0.1161278215
    2      C      -4.0936390689     1.0646611319     0.3864230281
    3      H      -5.3208410803    -0.6954698665     0.6008032433
    4      H      -5.5024034893     0.1300252879    -0.9557268264
    5      H      -6.2402177397     0.8112757482     0.4941144600
    6      O      -3.2056047715     1.0686292180    -0.7153606055
    7      H      -3.5933991789     0.6797383906     1.2825361527
    8      H      -4.3295700926     2.1119025968     0.5739123052
    9      H      -2.9530813135     0.1667251449    -0.9125195789
 ----------------------------------------------------------------

    7    -154.9780909565      7.78E-06 Convergence criterion met
    6    -155.0466513260      5.67E-06 Convergence criterion met
 Total energy in the final basis set = -155.04665133

                    Orbital Energies (a.u.)
 --------------------------------------------------------------

 Alpha MOs
 -- Occupied --
-19.2457 -10.3261 -10.2723  -1.1259  -0.8492  -0.7223  -0.5959  -0.5449
 -0.5240  -0.4696  -0.4568  -0.4087  -0.3620

                    Cartesian Multipole Moments
 -----------------------------------------------------------------
    Charge (ESU x 10^10)
                 0.0000
    Dipole Moment (Debye)
         X      -0.6738      Y      -1.3852      Z       0.8220
       Tot       1.7460
    Quadrupole Moments (Debye-Ang)
        XX     -15.0592     XY       2.6232     YY     -21.3342
        XZ      -3.1398     YZ       2.5083     ZZ     -20.4204

 Total job time:  11.05s(wall), 57.08s(cpu)
        *  Thank you very much for using Q-Chem.  Have a nice day.  *
