 Q-Chem 5.3 (devel), Q-Chem, Inc., Pleasanton, CA (2020)
 Q-Chem 5.3.0 for Intel X86 EM64T Linux

User input:
--------------------------------------------------------------
$rem
   JOBTYPE  sp
   EXCHANGE   omegaB97X-D
   BASIS   6-311+G(2df,2pd)
   UNRESTRICTED   False
   max_scf_cycles   250
   geom_opt_max_cycles   1500
   basis2 6-31G*
   scf_algorithm rca_diis
   SYM_IGNORE  TRUE
   print_input   true
   geom_opt_dmax   80
   pop_mulliken false
   XC_GRID 000075000302
$end

$molecule
0 1
C       -5.3681584307     0.2898186630     0.1035268183
C       -4.1092507892     1.1015821670     0.3470765833
H       -5.1774645726     -0.7700921803     0.2709238723
H       -5.7188790067     0.4229419185     -0.9210212045
H       -6.1714947523     0.6031193785     0.7740265480
O       -3.1429587301     0.9359503104     -0.6734103489
H       -3.6818411707     0.8542143751     1.3256236644
H       -4.3424503440     2.1660288398     0.3571568269
H       -2.8903122037     0.0136565279     -0.7135927596
$end
--------------------------------------------------------------

             Standard Nuclear Orientation (Angstroms)
    I     Atom           X                Y                Z
 ----------------------------------------------------------------
    1      C      -5.3681584307     0.2898186630     0.1035268183
    2      C      -4.1092507892     1.1015821670     0.3470765833
    3      H      -5.1774645726    -0.7700921803     0.2709238723
    4      H      -5.7188790067     0.4229419185    -0.9210212045
    5      H      -6.1714947523     0.6031193785     0.7740265480
    6      O      -3.1429587301     0.9359503104    -0.6734103489
    7      H      -3.6818411707     0.8542143751     1.3256236644
    8      H      -4.3424503440     2.1660288398     0.3571568269
    9      H      -2.8903122037     0.0136565279    -0.7135927596
 ----------------------------------------------------------------

    7    -154.9822855883      7.51E-06 Convergence criterion met
    6    -155.0505153138      5.66E-06 Convergence criterion met
 Total energy in the final basis set = -155.05051531

                    Orbital Energies (a.u.)
 --------------------------------------------------------------

 Alpha MOs
 -- Occupied --
-19.2463 -10.3271 -10.2739  -1.1261  -0.8496  -0.7228  -0.5963  -0.5455
 -0.5233  -0.4687  -0.4585  -0.4115  -0.3629

                    Cartesian Multipole Moments
 -----------------------------------------------------------------
    Charge (ESU x 10^10)
                 0.0000
    Dipole Moment (Debye)
         X      -0.7605      Y      -1.2274      Z       0.9931
       Tot       1.7525
    Quadrupole Moments (Debye-Ang)
        XX     -14.3589     XY       1.9272     YY     -20.5079
        XZ      -3.4974     YZ       2.1100     ZZ     -20.8948

 Total job time:  11.07s(wall), 56.93s(cpu)
        *  Thank you very much for using Q-Chem.  Have a nice day.  *
