 Q-Chem 5.3 (devel), Q-Chem, Inc., Pleasanton, CA (2020)
 Q-Chem 5.3.0 for Intel X86 EM64T Linux

User input:
--------------------------------------------------------------
$rem
   JOBTYPE  sp
   EXCHANGE   omegaB97X-D
   BASIS   6-311+G(2df,2pd)
   UNRESTRICTED   False
   max_scf_cycles   250
   geom_opt_max_cycles   1500
   basis2 6-31G*
   scf_algorithm rca_diis
   SYM_IGNORE  TRUE
   print_input   true
   geom_opt_dmax   80
   pop_mulliken false
   XC_GRID 000075000302
$end

$molecule
0 1
C       -5.3472372884     0.2421653409     0.1402297762
C       -4.0306709504     0.9272138236     0.4572259564
H       -5.8993438022     0.0332825632     1.0563865856
H       -5.1741591239     -0.6988022806     -0.3842216123
H       -5.9709937540     0.8703548800     -0.4996000809
O       -3.4060103018     1.4737396981     -0.6889225405
H       -3.3551376627     0.2322498083     0.9691868837
H       -4.1954660094     1.7696658563     1.1285288121
H       -3.2237911070     0.7673503101     -1.3085037800
$end
--------------------------------------------------------------

             Standard Nuclear Orientation (Angstroms)
    I     Atom           X                Y                Z
 ----------------------------------------------------------------
    1      C      -5.3472372884     0.2421653409     0.1402297762
    2      C      -4.0306709504     0.9272138236     0.4572259564
    3      H      -5.8993438022     0.0332825632     1.0563865856
    4      H      -5.1741591239    -0.6988022806    -0.3842216123
    5      H      -5.9709937540     0.8703548800    -0.4996000809
    6      O      -3.4060103018     1.4737396981    -0.6889225405
    7      H      -3.3551376627     0.2322498083     0.9691868837
    8      H      -4.1954660094     1.7696658563     1.1285288121
    9      H      -3.2237911070     0.7673503101    -1.3085037800
 ----------------------------------------------------------------

    7    -154.9822666939      7.49E-06 Convergence criterion met
    6    -155.0505063661      5.65E-06 Convergence criterion met
 Total energy in the final basis set = -155.05050637

                    Orbital Energies (a.u.)
 --------------------------------------------------------------

 Alpha MOs
 -- Occupied --
-19.2462 -10.3271 -10.2739  -1.1261  -0.8496  -0.7228  -0.5962  -0.5457
 -0.5228  -0.4687  -0.4592  -0.4112  -0.3628

                    Cartesian Multipole Moments
 -----------------------------------------------------------------
    Charge (ESU x 10^10)
                 0.0000
    Dipole Moment (Debye)
         X      -0.5063      Y      -1.6535      Z       0.2816
       Tot       1.7520
    Quadrupole Moments (Debye-Ang)
        XX     -16.3345     XY       4.5417     YY     -23.9810
        XZ      -1.8237     YZ       2.2613     ZZ     -18.4132

 Total job time:  11.11s(wall), 57.28s(cpu)
        *  Thank you very much for using Q-Chem.  Have a nice day.  *
