 Q-Chem 5.3 (devel), Q-Chem, Inc., Pleasanton, CA (2020)
 Q-Chem 5.3.0 for Intel X86 EM64T Linux

User input:
--------------------------------------------------------------
$rem
   JOBTYPE  sp
   EXCHANGE   omegaB97X-D
   BASIS   6-311+G(2df,2pd)
   UNRESTRICTED   False
   max_scf_cycles   250
   geom_opt_max_cycles   1500
   basis2 6-31G*
   scf_algorithm rca_diis
   SYM_IGNORE  TRUE
   print_input   true
   geom_opt_dmax   80
   pop_mulliken false
   XC_GRID 000075000302
$end

$molecule
0 1
C       -5.3337105749     0.2142365657     0.1425493574
C       -3.9815525532     0.8263775977     0.4588987936
H       -6.1062816167     0.6449303270     0.7792861839
H       -5.3133916963     -0.8650353399     0.3012461486
H       -5.6098762401     0.3926831107     -0.8990675719
O       -3.5304249506     1.7120274600     -0.5484025722
H       -3.2411070059     0.0383639685     0.6383398929
H       -4.0414351253     1.4251097575     1.3674494203
H       -3.4450302368     1.2285265529     -1.3699896525
$end
--------------------------------------------------------------

             Standard Nuclear Orientation (Angstroms)
    I     Atom           X                Y                Z
 ----------------------------------------------------------------
    1      C      -5.3337105749     0.2142365657     0.1425493574
    2      C      -3.9815525532     0.8263775977     0.4588987936
    3      H      -6.1062816167     0.6449303270     0.7792861839
    4      H      -5.3133916963    -0.8650353399     0.3012461486
    5      H      -5.6098762401     0.3926831107    -0.8990675719
    6      O      -3.5304249506     1.7120274600    -0.5484025722
    7      H      -3.2411070059     0.0383639685     0.6383398929
    8      H      -4.0414351253     1.4251097575     1.3674494203
    9      H      -3.4450302368     1.2285265529    -1.3699896525
 ----------------------------------------------------------------

    6    -154.9766865325      9.95E-05 Convergence criterion met
    6    -155.0455142896      5.65E-06 Convergence criterion met
 Total energy in the final basis set = -155.04551429

                    Orbital Energies (a.u.)
 --------------------------------------------------------------

 Alpha MOs
 -- Occupied --
-19.2453 -10.3261 -10.2727  -1.1256  -0.8495  -0.7227  -0.5952  -0.5451
 -0.5241  -0.4712  -0.4571  -0.4082  -0.3610

                    Cartesian Multipole Moments
 -----------------------------------------------------------------
    Charge (ESU x 10^10)
                 0.0000
    Dipole Moment (Debye)
         X      -0.4745      Y      -1.6932      Z      -0.1820
       Tot       1.7678
    Quadrupole Moments (Debye-Ang)
        XX     -16.8853     XY       5.1683     YY     -25.1686
        XZ       0.0443     YZ       0.9429     ZZ     -17.1681

 Total job time:  10.85s(wall), 55.78s(cpu)
        *  Thank you very much for using Q-Chem.  Have a nice day.  *
