 Q-Chem 5.3 (devel), Q-Chem, Inc., Pleasanton, CA (2020)
 Q-Chem 5.3.0 for Intel X86 EM64T Linux

User input:
--------------------------------------------------------------
$rem
   JOBTYPE  sp
   EXCHANGE   omegaB97X-D
   BASIS   6-311+G(2df,2pd)
   UNRESTRICTED   False
   max_scf_cycles   250
   geom_opt_max_cycles   1500
   basis2 6-31G*
   scf_algorithm rca_diis
   SYM_IGNORE  TRUE
   print_input   true
   geom_opt_dmax   80
   pop_mulliken false
   XC_GRID 000075000302
$end

$molecule
0 1
C       -5.4393121908     0.2911820197     0.1782073949
C       -4.1598147331     1.0786952589     -0.0358815544
H       -5.6664976667     -0.3141541453     -0.6991476095
H       -6.2779919420     0.9639552593     0.3637277911
H       -5.3494432119     -0.3745889130     1.0394559673
O       -3.0494301858     0.2526725120     -0.3313141405
H       -3.9505181909     1.7069847337     0.8375435938
H       -4.2644965425     1.7432762563     -0.8931470790
H       -2.4453053361     0.2691970184     0.4108656365
$end
--------------------------------------------------------------

             Standard Nuclear Orientation (Angstroms)
    I     Atom           X                Y                Z
 ----------------------------------------------------------------
    1      C      -5.4393121908     0.2911820197     0.1782073949
    2      C      -4.1598147331     1.0786952589    -0.0358815544
    3      H      -5.6664976667    -0.3141541453    -0.6991476095
    4      H      -6.2779919420     0.9639552593     0.3637277911
    5      H      -5.3494432119    -0.3745889130     1.0394559673
    6      O      -3.0494301858     0.2526725120    -0.3313141405
    7      H      -3.9505181909     1.7069847337     0.8375435938
    8      H      -4.2644965425     1.7432762563    -0.8931470790
    9      H      -2.4453053361     0.2691970184     0.4108656365
 ----------------------------------------------------------------

    6    -154.9801931631      9.03E-05 Convergence criterion met
    6    -155.0490710087      6.16E-06 Convergence criterion met
 Total energy in the final basis set = -155.04907101

                    Orbital Energies (a.u.)
 --------------------------------------------------------------

 Alpha MOs
 -- Occupied --
-19.2457 -10.3272 -10.2695  -1.1258  -0.8485  -0.7141  -0.6091  -0.5471
 -0.4988  -0.4791  -0.4541  -0.4097  -0.3617

                    Cartesian Multipole Moments
 -----------------------------------------------------------------
    Charge (ESU x 10^10)
                 0.0000
    Dipole Moment (Debye)
         X      -0.2761      Y       0.8573      Z       1.4909
       Tot       1.7418
    Quadrupole Moments (Debye-Ang)
        XX     -16.5858     XY      -3.4664     YY     -19.5405
        XZ      -3.3784     YZ       0.2620     ZZ     -19.7922

 Total job time:  10.75s(wall), 55.19s(cpu)
        *  Thank you very much for using Q-Chem.  Have a nice day.  *
