 Q-Chem 5.3 (devel), Q-Chem, Inc., Pleasanton, CA (2020)
 Q-Chem 5.3.0 for Intel X86 EM64T Linux

User input:
--------------------------------------------------------------
$rem
   JOBTYPE  sp
   EXCHANGE   omegaB97X-D
   BASIS   6-311+G(2df,2pd)
   UNRESTRICTED   False
   max_scf_cycles   250
   geom_opt_max_cycles   1500
   basis2 6-31G*
   scf_algorithm rca_diis
   SYM_IGNORE  TRUE
   print_input   true
   geom_opt_dmax   80
   pop_mulliken false
   XC_GRID 000075000302
$end

$molecule
0 1
C       -5.3315712305     0.3035128320     0.0627133736
C       -4.1266822243     1.2201819652     0.1679992105
H       -5.3743006631     -0.1593480079     -0.9230507743
H       -6.2545893340     0.8620732496     0.2254192892
H       -5.2859733759     -0.4901305888     0.8117977667
O       -2.9049564403     0.5527223108     -0.0858344999
H       -4.1035155055     1.7047537703     1.1508917099
H       -4.1872770844     2.0107369576     -0.5795845171
H       -3.0339441419     -0.3872824889     0.0399584415
$end
--------------------------------------------------------------

             Standard Nuclear Orientation (Angstroms)
    I     Atom           X                Y                Z
 ----------------------------------------------------------------
    1      C      -5.3315712305     0.3035128320     0.0627133736
    2      C      -4.1266822243     1.2201819652     0.1679992105
    3      H      -5.3743006631    -0.1593480079    -0.9230507743
    4      H      -6.2545893340     0.8620732496     0.2254192892
    5      H      -5.2859733759    -0.4901305888     0.8117977667
    6      O      -2.9049564403     0.5527223108    -0.0858344999
    7      H      -4.1035155055     1.7047537703     1.1508917099
    8      H      -4.1872770844     2.0107369576    -0.5795845171
    9      H      -3.0339441419    -0.3872824889     0.0399584415
 ----------------------------------------------------------------

    6    -154.9807753899      9.47E-05 Convergence criterion met
    6    -155.0494801908      5.47E-06 Convergence criterion met
 Total energy in the final basis set = -155.04948019

                    Orbital Energies (a.u.)
 --------------------------------------------------------------

 Alpha MOs
 -- Occupied --
-19.2447 -10.3269 -10.2807  -1.1254  -0.8518  -0.7284  -0.5802  -0.5536
 -0.5382  -0.4661  -0.4605  -0.4158  -0.3596

                    Cartesian Multipole Moments
 -----------------------------------------------------------------
    Charge (ESU x 10^10)
                 0.0000
    Dipole Moment (Debye)
         X      -1.7022      Y      -0.7587      Z       0.4192
       Tot       1.9102
    Quadrupole Moments (Debye-Ang)
        XX      -8.7806     XY       0.4876     YY     -18.6412
        XZ      -1.3015     YZ       0.0891     ZZ     -20.1664

 Total job time:  10.94s(wall), 56.05s(cpu)
        *  Thank you very much for using Q-Chem.  Have a nice day.  *
