 Q-Chem 5.3 (devel), Q-Chem, Inc., Pleasanton, CA (2020)
 Q-Chem 5.3.0 for Intel X86 EM64T Linux

User input:
--------------------------------------------------------------
$rem
   JOBTYPE  sp
   EXCHANGE   omegaB97X-D
   BASIS   6-311+G(2df,2pd)
   UNRESTRICTED   False
   max_scf_cycles   250
   geom_opt_max_cycles   1500
   basis2 6-31G*
   scf_algorithm rca_diis
   SYM_IGNORE  TRUE
   print_input   true
   geom_opt_dmax   80
   pop_mulliken false
   XC_GRID 000075000302
$end

$molecule
0 1
C       -5.4903795678     0.2946305317     0.1673274264
C       -4.1480634996     1.0020511594     0.1378562034
H       -5.6120614086     -0.3305834140     -0.7170356034
H       -6.3057931141     1.0189733901     0.1965429480
H       -5.5780204290     -0.3415087214     1.0509123978
O       -3.0567137839     0.1056946957     0.0481415319
H       -4.0420097215     1.6509963225     1.0148094335
H       -4.0757232558     1.6379677133     -0.7441343797
H       -2.2940452196     0.5789983227     -0.2841099578
$end
--------------------------------------------------------------

             Standard Nuclear Orientation (Angstroms)
    I     Atom           X                Y                Z
 ----------------------------------------------------------------
    1      C      -5.4903795678     0.2946305317     0.1673274264
    2      C      -4.1480634996     1.0020511594     0.1378562034
    3      H      -5.6120614086    -0.3305834140    -0.7170356034
    4      H      -6.3057931141     1.0189733901     0.1965429480
    5      H      -5.5780204290    -0.3415087214     1.0509123978
    6      O      -3.0567137839     0.1056946957     0.0481415319
    7      H      -4.0420097215     1.6509963225     1.0148094335
    8      H      -4.0757232558     1.6379677133    -0.7441343797
    9      H      -2.2940452196     0.5789983227    -0.2841099578
 ----------------------------------------------------------------

    6    -154.9796368172      7.12E-05 Convergence criterion met
    6    -155.0487762247      6.17E-06 Convergence criterion met
 Total energy in the final basis set = -155.04877622

                    Orbital Energies (a.u.)
 --------------------------------------------------------------

 Alpha MOs
 -- Occupied --
-19.2450 -10.3274 -10.2717  -1.1254  -0.8497  -0.7095  -0.6093  -0.5565
 -0.4945  -0.4741  -0.4548  -0.4131  -0.3586

                    Cartesian Multipole Moments
 -----------------------------------------------------------------
    Charge (ESU x 10^10)
                 0.0000
    Dipole Moment (Debye)
         X      -0.0709      Y       1.6132      Z      -0.4567
       Tot       1.6781
    Quadrupole Moments (Debye-Ang)
        XX     -16.8868     XY      -4.7498     YY     -19.2449
        XZ       0.5464     YZ      -0.2576     ZZ     -19.9513

 Total job time:  10.86s(wall), 55.95s(cpu)
        *  Thank you very much for using Q-Chem.  Have a nice day.  *
