 Q-Chem 5.3 (devel), Q-Chem, Inc., Pleasanton, CA (2020)
 Q-Chem 5.3.0 for Intel X86 EM64T Linux

User input:
--------------------------------------------------------------
$rem
   JOBTYPE  sp
   EXCHANGE   omegaB97X-D
   BASIS   6-311+G(2df,2pd)
   UNRESTRICTED   False
   max_scf_cycles   250
   geom_opt_max_cycles   1500
   basis2 6-31G*
   scf_algorithm rca_diis
   SYM_IGNORE  TRUE
   print_input   true
   geom_opt_dmax   80
   pop_mulliken false
   XC_GRID 000075000302
$end

$molecule
0 1
C       -5.4937729042     0.2945818355     0.1717279899
C       -4.1539049263     0.9999334473     0.0699545643
H       -5.6724456888     -0.3154182020     -0.7135815080
H       -6.3036569154     1.0198251714     0.2641150388
H       -5.5277024782     -0.3561927992     1.0483223262
O       -3.0729167833     0.1032140615     -0.1029812970
H       -3.9912252594     1.6338148290     0.9492462771
H       -4.1351465472     1.6504866366     -0.8040929367
H       -2.2520384971     0.5869750199     -0.0124004545
$end
--------------------------------------------------------------

             Standard Nuclear Orientation (Angstroms)
    I     Atom           X                Y                Z
 ----------------------------------------------------------------
    1      C      -5.4937729042     0.2945818355     0.1717279899
    2      C      -4.1539049263     0.9999334473     0.0699545643
    3      H      -5.6724456888    -0.3154182020    -0.7135815080
    4      H      -6.3036569154     1.0198251714     0.2641150388
    5      H      -5.5277024782    -0.3561927992     1.0483223262
    6      O      -3.0729167833     0.1032140615    -0.1029812970
    7      H      -3.9912252594     1.6338148290     0.9492462771
    8      H      -4.1351465472     1.6504866366    -0.8040929367
    9      H      -2.2520384971     0.5869750199    -0.0124004545
 ----------------------------------------------------------------

    6    -154.9799571436      6.92E-05 Convergence criterion met
    6    -155.0490599235      6.13E-06 Convergence criterion met
 Total energy in the final basis set = -155.04905992

                    Orbital Energies (a.u.)
 --------------------------------------------------------------

 Alpha MOs
 -- Occupied --
-19.2449 -10.3271 -10.2719  -1.1253  -0.8499  -0.7093  -0.6092  -0.5559
 -0.4948  -0.4734  -0.4541  -0.4156  -0.3572

                    Cartesian Multipole Moments
 -----------------------------------------------------------------
    Charge (ESU x 10^10)
                 0.0000
    Dipole Moment (Debye)
         X       0.0322      Y       1.6302      Z       0.3325
       Tot       1.6641
    Quadrupole Moments (Debye-Ang)
        XX     -17.2559     XY      -4.7181     YY     -19.2391
        XZ      -1.0684     YZ       0.1202     ZZ     -20.2216

 Total job time:  10.71s(wall), 54.97s(cpu)
        *  Thank you very much for using Q-Chem.  Have a nice day.  *
