 Q-Chem 5.3 (devel), Q-Chem, Inc., Pleasanton, CA (2020)
 Q-Chem 5.3.0 for Intel X86 EM64T Linux

User input:
--------------------------------------------------------------
$rem
   JOBTYPE  sp
   EXCHANGE   omegaB97X-D
   BASIS   6-311+G(2df,2pd)
   UNRESTRICTED   False
   max_scf_cycles   250
   geom_opt_max_cycles   1500
   basis2 6-31G*
   scf_algorithm rca_diis
   SYM_IGNORE  TRUE
   print_input   true
   geom_opt_dmax   80
   pop_mulliken false
   XC_GRID 000075000302
$end

$molecule
0 1
C       -5.3406024522     0.2282750208     0.1428410068
C       -4.0063642825     0.8767742785     0.4628131052
H       -6.0348325602     0.3529651582     0.9736802473
H       -5.2133961513     -0.8384990561     -0.0475191790
H       -5.7888904364     0.6744786782     -0.7476738168
O       -3.4703674252     1.5984783657     -0.6300722565
H       -3.2923998528     0.1225251128     0.8132231301
H       -4.1235759695     1.6061724859     1.2639186153
H       -3.3323808697     0.9960499560     -1.3609008523
$end
--------------------------------------------------------------

             Standard Nuclear Orientation (Angstroms)
    I     Atom           X                Y                Z
 ----------------------------------------------------------------
    1      C      -5.3406024522     0.2282750208     0.1428410068
    2      C      -4.0063642825     0.8767742785     0.4628131052
    3      H      -6.0348325602     0.3529651582     0.9736802473
    4      H      -5.2133961513    -0.8384990561    -0.0475191790
    5      H      -5.7888904364     0.6744786782    -0.7476738168
    6      O      -3.4703674252     1.5984783657    -0.6300722565
    7      H      -3.2923998528     0.1225251128     0.8132231301
    8      H      -4.1235759695     1.6061724859     1.2639186153
    9      H      -3.3323808697     0.9960499560    -1.3609008523
 ----------------------------------------------------------------

    7    -154.9780181219      7.78E-06 Convergence criterion met
    6    -155.0465979068      5.67E-06 Convergence criterion met
 Total energy in the final basis set = -155.04659791

                    Orbital Energies (a.u.)
 --------------------------------------------------------------

 Alpha MOs
 -- Occupied --
-19.2456 -10.3261 -10.2723  -1.1258  -0.8493  -0.7223  -0.5957  -0.5455
 -0.5234  -0.4688  -0.4579  -0.4086  -0.3619

                    Cartesian Multipole Moments
 -----------------------------------------------------------------
    Charge (ESU x 10^10)
                 0.0000
    Dipole Moment (Debye)
         X      -0.4816      Y      -1.6793      Z       0.0350
       Tot       1.7473
    Quadrupole Moments (Debye-Ang)
        XX     -16.6706     XY       4.8363     YY     -24.7056
        XZ      -0.8593     YZ       1.6844     ZZ     -17.6963

 Total job time:  11.16s(wall), 57.68s(cpu)
        *  Thank you very much for using Q-Chem.  Have a nice day.  *
