 Q-Chem 5.3 (devel), Q-Chem, Inc., Pleasanton, CA (2020)
 Q-Chem 5.3.0 for Intel X86 EM64T Linux

User input:
--------------------------------------------------------------
$rem
   JOBTYPE  sp
   EXCHANGE   omegaB97X-D
   BASIS   6-311+G(2df,2pd)
   UNRESTRICTED   False
   max_scf_cycles   250
   geom_opt_max_cycles   1500
   basis2 6-31G*
   scf_algorithm rca_diis
   SYM_IGNORE  TRUE
   print_input   true
   geom_opt_dmax   80
   pop_mulliken false
   XC_GRID 000075000302
$end

$molecule
0 1
C       -5.3290575856     0.2049606158     0.1407515617
C       -3.9650809617     0.7935200658     0.4510586152
H       -6.1164089212     0.8035966281     0.5984738749
H       -5.4024452175     -0.8154426257     0.5199834891
H       -5.5056129950     0.1734594346     -0.9367048572
O       -3.5672727446     1.7798941878     -0.4824094068
H       -3.2139470522     -0.0022805287     0.5136961445
H       -3.9821611365     1.2971755473     1.4172727667
H       -3.5208233857     1.3823366751     -1.3518121880
$end
--------------------------------------------------------------

             Standard Nuclear Orientation (Angstroms)
    I     Atom           X                Y                Z
 ----------------------------------------------------------------
    1      C      -5.3290575856     0.2049606158     0.1407515617
    2      C      -3.9650809617     0.7935200658     0.4510586152
    3      H      -6.1164089212     0.8035966281     0.5984738749
    4      H      -5.4024452175    -0.8154426257     0.5199834891
    5      H      -5.5056129950     0.1734594346    -0.9367048572
    6      O      -3.5672727446     1.7798941878    -0.4824094068
    7      H      -3.2139470522    -0.0022805287     0.5136961445
    8      H      -3.9821611365     1.2971755473     1.4172727667
    9      H      -3.5208233857     1.3823366751    -1.3518121880
 ----------------------------------------------------------------

    6    -154.9793935347      9.99E-05 Convergence criterion met
    6    -155.0480017357      5.64E-06 Convergence criterion met
 Total energy in the final basis set = -155.04800174

                    Orbital Energies (a.u.)
 --------------------------------------------------------------

 Alpha MOs
 -- Occupied --
-19.2456 -10.3268 -10.2740  -1.1257  -0.8498  -0.7231  -0.5955  -0.5450
 -0.5239  -0.4718  -0.4575  -0.4100  -0.3615

                    Cartesian Multipole Moments
 -----------------------------------------------------------------
    Charge (ESU x 10^10)
                 0.0000
    Dipole Moment (Debye)
         X      -0.4729      Y      -1.6835      Z      -0.3101
       Tot       1.7760
    Quadrupole Moments (Debye-Ang)
        XX     -16.9256     XY       5.3321     YY     -25.3278
        XZ       0.5980     YZ       0.3421     ZZ     -16.9724

 Total job time:  10.86s(wall), 55.82s(cpu)
        *  Thank you very much for using Q-Chem.  Have a nice day.  *
