 Q-Chem 5.3 (devel), Q-Chem, Inc., Pleasanton, CA (2020)
 Q-Chem 5.3.0 for Intel X86 EM64T Linux

User input:
--------------------------------------------------------------
$rem
   JOBTYPE  sp
   EXCHANGE   omegaB97X-D
   BASIS   6-311+G(2df,2pd)
   UNRESTRICTED   False
   max_scf_cycles   250
   geom_opt_max_cycles   1500
   basis2 6-31G*
   scf_algorithm rca_diis
   SYM_IGNORE  TRUE
   print_input   true
   geom_opt_dmax   80
   pop_mulliken false
   XC_GRID 000075000302
$end

$molecule
0 1
C       -5.3973750521     0.2927532358     0.1388263437
C       -4.1318071410     1.1229252952     0.2496285930
H       -5.3725648540     -0.3232369089     -0.7599158398
H       -6.2768300571     0.9370219185     0.0952128912
H       -5.5097425307     -0.3663781799     1.0025368266
O       -2.9567622455     0.3344204264     0.2584262964
H       -4.1736327036     1.7612267011     1.1397106870
H       -4.0347322298     1.7803737056     -0.6140081432
H       -2.7493631862     0.0781138062     -0.6401076548
$end
--------------------------------------------------------------

             Standard Nuclear Orientation (Angstroms)
    I     Atom           X                Y                Z
 ----------------------------------------------------------------
    1      C      -5.3973750521     0.2927532358     0.1388263437
    2      C      -4.1318071410     1.1229252952     0.2496285930
    3      H      -5.3725648540    -0.3232369089    -0.7599158398
    4      H      -6.2768300571     0.9370219185     0.0952128912
    5      H      -5.5097425307    -0.3663781799     1.0025368266
    6      O      -2.9567622455     0.3344204264     0.2584262964
    7      H      -4.1736327036     1.7612267011     1.1397106870
    8      H      -4.0347322298     1.7803737056    -0.6140081432
    9      H      -2.7493631862     0.0781138062    -0.6401076548
 ----------------------------------------------------------------

    6    -154.9801309253      9.70E-05 Convergence criterion met
    6    -155.0487374834      5.92E-06 Convergence criterion met
 Total energy in the final basis set = -155.04873748

                    Orbital Energies (a.u.)
 --------------------------------------------------------------

 Alpha MOs
 -- Occupied --
-19.2452 -10.3280 -10.2717  -1.1260  -0.8489  -0.7187  -0.6017  -0.5493
 -0.5127  -0.4742  -0.4580  -0.4063  -0.3621

                    Cartesian Multipole Moments
 -----------------------------------------------------------------
    Charge (ESU x 10^10)
                 0.0000
    Dipole Moment (Debye)
         X      -1.0067      Y       0.4243      Z      -1.3855
       Tot       1.7644
    Quadrupole Moments (Debye-Ang)
        XX     -13.1386     XY      -2.6632     YY     -19.4581
        XZ       2.8757     YZ       0.4393     ZZ     -18.8582

 Total job time:  10.88s(wall), 55.48s(cpu)
        *  Thank you very much for using Q-Chem.  Have a nice day.  *
