 Q-Chem 5.3 (devel), Q-Chem, Inc., Pleasanton, CA (2020)
 Q-Chem 5.3.0 for Intel X86 EM64T Linux

User input:
--------------------------------------------------------------
$rem
   JOBTYPE  sp
   EXCHANGE   omegaB97X-D
   BASIS   6-311+G(2df,2pd)
   UNRESTRICTED   False
   max_scf_cycles   250
   geom_opt_max_cycles   1500
   basis2 6-31G*
   scf_algorithm rca_diis
   SYM_IGNORE  TRUE
   print_input   true
   geom_opt_dmax   80
   pop_mulliken false
   XC_GRID 000075000302
$end

$molecule
0 1
C       -5.3428507286     0.2329377421     0.1422918060
C       -4.0145578020     0.8936546177     0.4620042325
H       -5.9962610523     0.2473492278     1.0144409761
H       -5.1926071068     -0.8036761070     -0.1631324176
H       -5.8507392946     0.7506411246     -0.6744755317
O       -3.4493081984     1.5579724965     -0.6523217861
H       -3.3121173694     0.1564047284     0.8675461366
H       -4.1487915489     1.6628636945     1.2221549150
H       -3.2955768989     0.9190724755     -1.3481983307
$end
--------------------------------------------------------------

             Standard Nuclear Orientation (Angstroms)
    I     Atom           X                Y                Z
 ----------------------------------------------------------------
    1      C      -5.3428507286     0.2329377421     0.1422918060
    2      C      -4.0145578020     0.8936546177     0.4620042325
    3      H      -5.9962610523     0.2473492278     1.0144409761
    4      H      -5.1926071068    -0.8036761070    -0.1631324176
    5      H      -5.8507392946     0.7506411246    -0.6744755317
    6      O      -3.4493081984     1.5579724965    -0.6523217861
    7      H      -3.3121173694     0.1564047284     0.8675461366
    8      H      -4.1487915489     1.6628636945     1.2221549150
    9      H      -3.2955768989     0.9190724755    -1.3481983307
 ----------------------------------------------------------------

    7    -154.9796210330      7.68E-06 Convergence criterion met
    6    -155.0480540187      5.66E-06 Convergence criterion met
 Total energy in the final basis set = -155.04805402

                    Orbital Energies (a.u.)
 --------------------------------------------------------------

 Alpha MOs
 -- Occupied --
-19.2458 -10.3264 -10.2727  -1.1259  -0.8494  -0.7224  -0.5960  -0.5456
 -0.5231  -0.4683  -0.4585  -0.4095  -0.3623

                    Cartesian Multipole Moments
 -----------------------------------------------------------------
    Charge (ESU x 10^10)
                 0.0000
    Dipole Moment (Debye)
         X      -0.4872      Y      -1.6721      Z       0.1161
       Tot       1.7455
    Quadrupole Moments (Debye-Ang)
        XX     -16.5656     XY       4.7406     YY     -24.4919
        XZ      -1.1859     YZ       1.8952     ZZ     -17.9223

 Total job time:  11.12s(wall), 57.01s(cpu)
        *  Thank you very much for using Q-Chem.  Have a nice day.  *
