 Q-Chem 5.3 (devel), Q-Chem, Inc., Pleasanton, CA (2020)
 Q-Chem 5.3.0 for Intel X86 EM64T Linux

User input:
--------------------------------------------------------------
$rem
   JOBTYPE  sp
   EXCHANGE   omegaB97X-D
   BASIS   6-311+G(2df,2pd)
   UNRESTRICTED   False
   max_scf_cycles   250
   geom_opt_max_cycles   1500
   basis2 6-31G*
   scf_algorithm rca_diis
   SYM_IGNORE  TRUE
   print_input   true
   geom_opt_dmax   80
   pop_mulliken false
   XC_GRID 000075000302
$end

$molecule
0 1
C       -5.3734073588     0.3045029904     0.0738415579
C       -4.1296271423     1.1558032842     0.2511083261
H       -5.1297574661     -0.6253058512     -0.4398579308
H       -6.1244110450     0.8385579632     -0.5102852467
H       -5.8179584894     0.0554259879     1.0399737490
O       -3.0353034962     0.6965176612     -0.5196447526
H       -3.8568236922     1.2126164704     1.3111907455
H       -4.3176249244     2.1741655521     -0.0881931450
H       -2.8178963855     -0.1950640583     -0.2478233033
$end
--------------------------------------------------------------

             Standard Nuclear Orientation (Angstroms)
    I     Atom           X                Y                Z
 ----------------------------------------------------------------
    1      C      -5.3734073588     0.3045029904     0.0738415579
    2      C      -4.1296271423     1.1558032842     0.2511083261
    3      H      -5.1297574661    -0.6253058512    -0.4398579308
    4      H      -6.1244110450     0.8385579632    -0.5102852467
    5      H      -5.8179584894     0.0554259879     1.0399737490
    6      O      -3.0353034962     0.6965176612    -0.5196447526
    7      H      -3.8568236922     1.2126164704     1.3111907455
    8      H      -4.3176249244     2.1741655521    -0.0881931450
    9      H      -2.8178963855    -0.1950640583    -0.2478233033
 ----------------------------------------------------------------

    6    -154.9767138096      9.98E-05 Convergence criterion met
    6    -155.0455227277      5.65E-06 Convergence criterion met
 Total energy in the final basis set = -155.04552273

                    Orbital Energies (a.u.)
 --------------------------------------------------------------

 Alpha MOs
 -- Occupied --
-19.2455 -10.3261 -10.2728  -1.1257  -0.8494  -0.7227  -0.5951  -0.5453
 -0.5245  -0.4704  -0.4576  -0.4082  -0.3612

                    Cartesian Multipole Moments
 -----------------------------------------------------------------
    Charge (ESU x 10^10)
                 0.0000
    Dipole Moment (Debye)
         X      -0.9439      Y      -0.9052      Z       1.1888
       Tot       1.7674
    Quadrupole Moments (Debye-Ang)
        XX     -13.4499     XY       0.6838     YY     -19.2715
        XZ      -3.5292     YZ       0.9749     ZZ     -21.0131

 Total job time:  10.94s(wall), 56.24s(cpu)
        *  Thank you very much for using Q-Chem.  Have a nice day.  *
