 Q-Chem 5.3 (devel), Q-Chem, Inc., Pleasanton, CA (2020)
 Q-Chem 5.3.0 for Intel X86 EM64T Linux

User input:
--------------------------------------------------------------
$rem
   JOBTYPE  sp
   EXCHANGE   omegaB97X-D
   BASIS   6-311+G(2df,2pd)
   UNRESTRICTED   False
   max_scf_cycles   250
   geom_opt_max_cycles   1500
   basis2 6-31G*
   scf_algorithm rca_diis
   SYM_IGNORE  TRUE
   print_input   true
   geom_opt_dmax   80
   pop_mulliken false
   XC_GRID 000075000302
$end

$molecule
0 1
C       -5.4838435761     0.2937297547     0.1737624546
C       -4.1570744213     1.0157485950     0.0271427821
H       -5.6905338072     -0.3087429689     -0.7106032404
H       -6.2975470367     1.0084204712     0.3061604625
H       -5.4757333818     -0.3668038055     1.0436510177
O       -3.0737541967     0.1336398959     -0.1983552625
H       -3.9668706309     1.6419775613     0.9063947349
H       -4.1802396926     1.6758559830     -0.8396051451
H       -2.2772132567     0.5233945132     0.1617621962
$end
--------------------------------------------------------------

             Standard Nuclear Orientation (Angstroms)
    I     Atom           X                Y                Z
 ----------------------------------------------------------------
    1      C      -5.4838435761     0.2937297547     0.1737624546
    2      C      -4.1570744213     1.0157485950     0.0271427821
    3      H      -5.6905338072    -0.3087429689    -0.7106032404
    4      H      -6.2975470367     1.0084204712     0.3061604625
    5      H      -5.4757333818    -0.3668038055     1.0436510177
    6      O      -3.0737541967     0.1336398959    -0.1983552625
    7      H      -3.9668706309     1.6419775613     0.9063947349
    8      H      -4.1802396926     1.6758559830    -0.8396051451
    9      H      -2.2772132567     0.5233945132     0.1617621962
 ----------------------------------------------------------------

    6    -154.9795689592      7.31E-05 Convergence criterion met
    6    -155.0487642618      6.21E-06 Convergence criterion met
 Total energy in the final basis set = -155.04876426

                    Orbital Energies (a.u.)
 --------------------------------------------------------------

 Alpha MOs
 -- Occupied --
-19.2450 -10.3271 -10.2711  -1.1253  -0.8495  -0.7101  -0.6101  -0.5533
 -0.4942  -0.4761  -0.4535  -0.4145  -0.3579

                    Cartesian Multipole Moments
 -----------------------------------------------------------------
    Charge (ESU x 10^10)
                 0.0000
    Dipole Moment (Debye)
         X       0.0127      Y       1.4722      Z       0.8305
       Tot       1.6904
    Quadrupole Moments (Debye-Ang)
        XX     -17.3623     XY      -4.4554     YY     -19.3478
        XZ      -2.0495     YZ       0.3334     ZZ     -20.1638

 Total job time:  10.72s(wall), 55.26s(cpu)
        *  Thank you very much for using Q-Chem.  Have a nice day.  *
