 Q-Chem 5.3 (devel), Q-Chem, Inc., Pleasanton, CA (2020)
 Q-Chem 5.3.0 for Intel X86 EM64T Linux

User input:
--------------------------------------------------------------
$rem
   JOBTYPE  sp
   EXCHANGE   omegaB97X-D
   BASIS   6-311+G(2df,2pd)
   UNRESTRICTED   False
   max_scf_cycles   250
   geom_opt_max_cycles   1500
   basis2 6-31G*
   scf_algorithm rca_diis
   SYM_IGNORE  TRUE
   print_input   true
   geom_opt_dmax   80
   pop_mulliken false
   XC_GRID 000075000302
$end

$molecule
0 1
C       -5.4650862914     0.2924723413     0.1756838774
C       -4.1591721856     1.0431791373     -0.0091202869
H       -5.6885160667     -0.3079264643     -0.7060175044
H       -6.2885796795     0.9889844618     0.3404712565
H       -5.4143867993     -0.3738880511     1.0396687502
O       -3.0658922991     0.1856039731     -0.2771720760
H       -3.9528785205     1.6670187935     0.8682001812
H       -4.2248020152     1.7087754708     -0.8694717320
H       -2.3434961426     0.4130003377     0.3080675340
$end
--------------------------------------------------------------

             Standard Nuclear Orientation (Angstroms)
    I     Atom           X                Y                Z
 ----------------------------------------------------------------
    1      C      -5.4650862914     0.2924723413     0.1756838774
    2      C      -4.1591721856     1.0431791373    -0.0091202869
    3      H      -5.6885160667    -0.3079264643    -0.7060175044
    4      H      -6.2885796795     0.9889844618     0.3404712565
    5      H      -5.4143867993    -0.3738880511     1.0396687502
    6      O      -3.0658922991     0.1856039731    -0.2771720760
    7      H      -3.9528785205     1.6670187935     0.8682001812
    8      H      -4.2248020152     1.7087754708    -0.8694717320
    9      H      -2.3434961426     0.4130003377     0.3080675340
 ----------------------------------------------------------------

    6    -154.9794522980      8.08E-05 Convergence criterion met
    6    -155.0486170633      6.25E-06 Convergence criterion met
 Total energy in the final basis set = -155.04861706

                    Orbital Energies (a.u.)
 --------------------------------------------------------------

 Alpha MOs
 -- Occupied --
-19.2453 -10.3271 -10.2700  -1.1255  -0.8489  -0.7116  -0.6105  -0.5500
 -0.4944  -0.4791  -0.4535  -0.4119  -0.3596

                    Cartesian Multipole Moments
 -----------------------------------------------------------------
    Charge (ESU x 10^10)
                 0.0000
    Dipole Moment (Debye)
         X      -0.0869      Y       1.2042      Z       1.2316
       Tot       1.7246
    Quadrupole Moments (Debye-Ang)
        XX     -17.2117     XY      -4.0357     YY     -19.4758
        XZ      -2.8398     YZ       0.3891     ZZ     -19.9824

 Total job time:  10.75s(wall), 55.19s(cpu)
        *  Thank you very much for using Q-Chem.  Have a nice day.  *
