 Q-Chem 5.3 (devel), Q-Chem, Inc., Pleasanton, CA (2020)
 Q-Chem 5.3.0 for Intel X86 EM64T Linux

User input:
--------------------------------------------------------------
$rem
   JOBTYPE  sp
   EXCHANGE   omegaB97X-D
   BASIS   6-311+G(2df,2pd)
   UNRESTRICTED   False
   max_scf_cycles   250
   geom_opt_max_cycles   1500
   basis2 6-31G*
   scf_algorithm rca_diis
   SYM_IGNORE  TRUE
   print_input   true
   geom_opt_dmax   80
   pop_mulliken false
   XC_GRID 000075000302
$end

$molecule
0 1
C       -5.3778045565     0.2896706054     0.1883315179
C       -4.1562627097     1.1566924933     -0.0550477882
H       -5.5726393240     -0.3465717733     -0.6748208242
H       -6.2578455903     0.9083193946     0.3706137962
H       -5.2348150274     -0.3516047953     1.0609117874
O       -2.9959600603     0.4011960932     -0.3474016587
H       -3.9808556816     1.8145583641     0.8039452659
H       -4.3139110856     1.7958676482     -0.9234557994
H       -2.7127159644     -0.0509080301     0.4472337033
$end
--------------------------------------------------------------

             Standard Nuclear Orientation (Angstroms)
    I     Atom           X                Y                Z
 ----------------------------------------------------------------
    1      C      -5.3778045565     0.2896706054     0.1883315179
    2      C      -4.1562627097     1.1566924933    -0.0550477882
    3      H      -5.5726393240    -0.3465717733    -0.6748208242
    4      H      -6.2578455903     0.9083193946     0.3706137962
    5      H      -5.2348150274    -0.3516047953     1.0609117874
    6      O      -2.9959600603     0.4011960932    -0.3474016587
    7      H      -3.9808556816     1.8145583641     0.8039452659
    8      H      -4.3139110856     1.7958676482    -0.9234557994
    9      H      -2.7127159644    -0.0509080301     0.4472337033
 ----------------------------------------------------------------

    7    -154.9825405810      7.52E-06 Convergence criterion met
    6    -155.0507823022      5.75E-06 Convergence criterion met
 Total energy in the final basis set = -155.05078230

                    Orbital Energies (a.u.)
 --------------------------------------------------------------

 Alpha MOs
 -- Occupied --
-19.2463 -10.3273 -10.2728  -1.1261  -0.8493  -0.7211  -0.5997  -0.5448
 -0.5182  -0.4717  -0.4572  -0.4107  -0.3631

                    Cartesian Multipole Moments
 -----------------------------------------------------------------
    Charge (ESU x 10^10)
                 0.0000
    Dipole Moment (Debye)
         X      -0.8848      Y       0.0796      Z       1.5000
       Tot       1.7433
    Quadrupole Moments (Debye-Ang)
        XX     -13.5827     XY      -1.9059     YY     -19.3350
        XZ      -3.5183     YZ      -0.2293     ZZ     -19.7206

 Total job time:  11.08s(wall), 57.08s(cpu)
        *  Thank you very much for using Q-Chem.  Have a nice day.  *
