 Q-Chem 5.3 (devel), Q-Chem, Inc., Pleasanton, CA (2020)
 Q-Chem 5.3.0 for Intel X86 EM64T Linux

User input:
--------------------------------------------------------------
$rem
   JOBTYPE  sp
   EXCHANGE   omegaB97X-D
   BASIS   6-311+G(2df,2pd)
   UNRESTRICTED   False
   max_scf_cycles   250
   geom_opt_max_cycles   1500
   basis2 6-31G*
   scf_algorithm rca_diis
   SYM_IGNORE  TRUE
   print_input   true
   geom_opt_dmax   80
   pop_mulliken false
   XC_GRID 000075000302
$end

$molecule
0 1
C       -5.3608420995     0.2721927581     0.1234032916
C       -4.0814970883     1.0370656323     0.4086588841
H       -5.4448261984     -0.5911422150     0.7832489645
H       -5.3774970212     -0.0766546060     -0.9102569547
H       -6.2375555836     0.9057142594     0.2753916000
O       -3.2493874512     1.1593887175     -0.7294001868
H       -3.5358678158     0.5684881187     1.2357912841
H       -4.3117210244     2.0580909482     0.7120309437
H       -3.0036157175     0.2840763868     -1.0285578265
$end
--------------------------------------------------------------

             Standard Nuclear Orientation (Angstroms)
    I     Atom           X                Y                Z
 ----------------------------------------------------------------
    1      C      -5.3608420995     0.2721927581     0.1234032916
    2      C      -4.0814970883     1.0370656323     0.4086588841
    3      H      -5.4448261984    -0.5911422150     0.7832489645
    4      H      -5.3774970212    -0.0766546060    -0.9102569547
    5      H      -6.2375555836     0.9057142594     0.2753916000
    6      O      -3.2493874512     1.1593887175    -0.7294001868
    7      H      -3.5358678158     0.5684881187     1.2357912841
    8      H      -4.3117210244     2.0580909482     0.7120309437
    9      H      -3.0036157175     0.2840763868    -1.0285578265
 ----------------------------------------------------------------

    7    -154.9764045027      7.88E-06 Convergence criterion met
    6    -155.0452001958      5.66E-06 Convergence criterion met
 Total energy in the final basis set = -155.04520020

                    Orbital Energies (a.u.)
 --------------------------------------------------------------

 Alpha MOs
 -- Occupied --
-19.2454 -10.3259 -10.2723  -1.1257  -0.8493  -0.7225  -0.5955  -0.5446
 -0.5244  -0.4713  -0.4564  -0.4078  -0.3613

                    Cartesian Multipole Moments
 -----------------------------------------------------------------
    Charge (ESU x 10^10)
                 0.0000
    Dipole Moment (Debye)
         X      -0.6292      Y      -1.4779      Z       0.7140
       Tot       1.7578
    Quadrupole Moments (Debye-Ang)
        XX     -15.4494     XY       3.1279     YY     -21.8912
        XZ      -2.9521     YZ       2.6650     ZZ     -20.0381

 Total job time:  11.12s(wall), 57.40s(cpu)
        *  Thank you very much for using Q-Chem.  Have a nice day.  *
