 Q-Chem 5.3 (devel), Q-Chem, Inc., Pleasanton, CA (2020)
 Q-Chem 5.3.0 for Intel X86 EM64T Linux

User input:
--------------------------------------------------------------
$rem
   JOBTYPE  sp
   EXCHANGE   omegaB97X-D
   BASIS   6-311+G(2df,2pd)
   UNRESTRICTED   False
   max_scf_cycles   250
   geom_opt_max_cycles   1500
   basis2 6-31G*
   scf_algorithm rca_diis
   SYM_IGNORE  TRUE
   print_input   true
   geom_opt_dmax   80
   pop_mulliken false
   XC_GRID 000075000302
$end

$molecule
0 1
C       -5.3713077441     0.2981659850     0.0892762713
C       -4.1213569342     1.1322467582     0.3015429920
H       -5.1088481275     -0.7441836000     -0.0907770796
H       -5.9386450478     0.6672059848     -0.7665059656
H       -6.0232924355     0.3406645616     0.9645969581
O       -3.0856231624     0.8107323390     -0.6075399890
H       -3.7705207148     1.0334992470     1.3352678455
H       -4.3383999702     2.1869853551     0.1343629222
H       -2.8448158634     -0.1080966307     -0.4899139549
$end
--------------------------------------------------------------

             Standard Nuclear Orientation (Angstroms)
    I     Atom           X                Y                Z
 ----------------------------------------------------------------
    1      C      -5.3713077441     0.2981659850     0.0892762713
    2      C      -4.1213569342     1.1322467582     0.3015429920
    3      H      -5.1088481275    -0.7441836000    -0.0907770796
    4      H      -5.9386450478     0.6672059848    -0.7665059656
    5      H      -6.0232924355     0.3406645616     0.9645969581
    6      O      -3.0856231624     0.8107323390    -0.6075399890
    7      H      -3.7705207148     1.0334992470     1.3352678455
    8      H      -4.3383999702     2.1869853551     0.1343629222
    9      H      -2.8448158634    -0.1080966307    -0.4899139549
 ----------------------------------------------------------------

    7    -154.9809803890      7.57E-06 Convergence criterion met
    6    -155.0494247295      5.64E-06 Convergence criterion met
 Total energy in the final basis set = -155.04942473

                    Orbital Energies (a.u.)
 --------------------------------------------------------------

 Alpha MOs
 -- Occupied --
-19.2460 -10.3270 -10.2744  -1.1260  -0.8498  -0.7232  -0.5957  -0.5457
 -0.5236  -0.4704  -0.4587  -0.4109  -0.3621

                    Cartesian Multipole Moments
 -----------------------------------------------------------------
    Charge (ESU x 10^10)
                 0.0000
    Dipole Moment (Debye)
         X      -0.8588      Y      -1.0681      Z       1.1242
       Tot       1.7727
    Quadrupole Moments (Debye-Ang)
        XX     -13.7854     XY       1.2843     YY     -19.7698
        XZ      -3.6758     YZ       1.5663     ZZ     -21.1197

 Total job time:  11.13s(wall), 57.23s(cpu)
        *  Thank you very much for using Q-Chem.  Have a nice day.  *
