 Q-Chem 5.3 (devel), Q-Chem, Inc., Pleasanton, CA (2020)
 Q-Chem 5.3.0 for Intel X86 EM64T Linux

User input:
--------------------------------------------------------------
$rem
   JOBTYPE  sp
   EXCHANGE   omegaB97X-D
   BASIS   6-311+G(2df,2pd)
   UNRESTRICTED   False
   max_scf_cycles   250
   geom_opt_max_cycles   1500
   basis2 6-31G*
   scf_algorithm rca_diis
   SYM_IGNORE  TRUE
   print_input   true
   geom_opt_dmax   80
   pop_mulliken false
   XC_GRID 000075000302
$end

$molecule
0 1
C       -5.3561085774     0.2942835564     0.1192024683
C       -4.1271443013     1.1755963380     0.2459286036
H       -5.3159718696     -0.2868463981     -0.8019239820
H       -6.2637003708     0.8997677331     0.1096409404
H       -5.4277712955     -0.4002247667     0.9592019418
O       -2.9183586774     0.4405930148     0.2119394215
H       -4.1853797108     1.7785554170     1.1594236406
H       -4.0706824237     1.8677383711     -0.5938819854
H       -2.9376927735     -0.1522432656     -0.5392210487
$end
--------------------------------------------------------------

             Standard Nuclear Orientation (Angstroms)
    I     Atom           X                Y                Z
 ----------------------------------------------------------------
    1      C      -5.3561085774     0.2942835564     0.1192024683
    2      C      -4.1271443013     1.1755963380     0.2459286036
    3      H      -5.3159718696    -0.2868463981    -0.8019239820
    4      H      -6.2637003708     0.8997677331     0.1096409404
    5      H      -5.4277712955    -0.4002247667     0.9592019418
    6      O      -2.9183586774     0.4405930148     0.2119394215
    7      H      -4.1853797108     1.7785554170     1.1594236406
    8      H      -4.0706824237     1.8677383711    -0.5938819854
    9      H      -2.9376927735    -0.1522432656    -0.5392210487
 ----------------------------------------------------------------

    6    -154.9804379246      9.63E-05 Convergence criterion met
    6    -155.0490476985      5.65E-06 Convergence criterion met
 Total energy in the final basis set = -155.04904770

                    Orbital Energies (a.u.)
 --------------------------------------------------------------

 Alpha MOs
 -- Occupied --
-19.2446 -10.3276 -10.2765  -1.1256  -0.8503  -0.7243  -0.5905  -0.5506
 -0.5281  -0.4687  -0.4611  -0.4112  -0.3593

                    Cartesian Multipole Moments
 -----------------------------------------------------------------
    Charge (ESU x 10^10)
                 0.0000
    Dipole Moment (Debye)
         X      -1.4636      Y      -0.1421      Z      -1.0640
       Tot       1.8150
    Quadrupole Moments (Debye-Ang)
        XX     -10.4153     XY      -1.2302     YY     -19.1868
        XZ       2.2683     YZ       0.8407     ZZ     -19.1819

 Total job time:  10.85s(wall), 55.83s(cpu)
        *  Thank you very much for using Q-Chem.  Have a nice day.  *
