 Q-Chem 5.3 (devel), Q-Chem, Inc., Pleasanton, CA (2020)
 Q-Chem 5.3.0 for Intel X86 EM64T Linux

User input:
--------------------------------------------------------------
$rem
   JOBTYPE  sp
   EXCHANGE   omegaB97X-D
   BASIS   6-311+G(2df,2pd)
   UNRESTRICTED   False
   max_scf_cycles   250
   geom_opt_max_cycles   1500
   basis2 6-31G*
   scf_algorithm rca_diis
   SYM_IGNORE  TRUE
   print_input   true
   geom_opt_dmax   80
   pop_mulliken false
   XC_GRID 000075000302
$end

$molecule
0 1
C       -5.3655210804     0.2832692211     0.1121377812
C       -4.0992074871     1.0776039005     0.3740675901
H       -5.2662251344     -0.7315422821     0.4969687113
H       -5.5719114048     0.2312231553     -0.9579648380
H       -6.2269282180     0.7497756623     0.5952795361
O       -3.1842467541     1.0238014684     -0.7041253377
H       -3.6226906072     0.7370604472     1.3005588292
H       -4.3357353444     2.1335561215     0.5027137820
H       -2.9303439695     0.1124723058     -0.8493260540
$end
--------------------------------------------------------------

             Standard Nuclear Orientation (Angstroms)
    I     Atom           X                Y                Z
 ----------------------------------------------------------------
    1      C      -5.3655210804     0.2832692211     0.1121377812
    2      C      -4.0992074871     1.0776039005     0.3740675901
    3      H      -5.2662251344    -0.7315422821     0.4969687113
    4      H      -5.5719114048     0.2312231553    -0.9579648380
    5      H      -6.2269282180     0.7497756623     0.5952795361
    6      O      -3.1842467541     1.0238014684    -0.7041253377
    7      H      -3.6226906072     0.7370604472     1.3005588292
    8      H      -4.3357353444     2.1335561215     0.5027137820
    9      H      -2.9303439695     0.1124723058    -0.8493260540
 ----------------------------------------------------------------

    7    -154.9796609925      7.68E-06 Convergence criterion met
    6    -155.0480702028      5.67E-06 Convergence criterion met
 Total energy in the final basis set = -155.04807020

                    Orbital Energies (a.u.)
 --------------------------------------------------------------

 Alpha MOs
 -- Occupied --
-19.2460 -10.3264 -10.2727  -1.1260  -0.8493  -0.7224  -0.5962  -0.5451
 -0.5237  -0.4690  -0.4573  -0.4097  -0.3624

                    Cartesian Multipole Moments
 -----------------------------------------------------------------
    Charge (ESU x 10^10)
                 0.0000
    Dipole Moment (Debye)
         X      -0.7002      Y      -1.3344      Z       0.8799
       Tot       1.7450
    Quadrupole Moments (Debye-Ang)
        XX     -14.8298     XY       2.3845     YY     -21.0575
        XZ      -3.2579     YZ       2.3958     ZZ     -20.5965

 Total job time:  11.12s(wall), 57.40s(cpu)
        *  Thank you very much for using Q-Chem.  Have a nice day.  *
