 Q-Chem 5.3 (devel), Q-Chem, Inc., Pleasanton, CA (2020)
 Q-Chem 5.3.0 for Intel X86 EM64T Linux

User input:
--------------------------------------------------------------
$rem
   JOBTYPE  sp
   EXCHANGE   omegaB97X-D
   BASIS   6-311+G(2df,2pd)
   UNRESTRICTED   False
   max_scf_cycles   250
   geom_opt_max_cycles   1500
   basis2 6-31G*
   scf_algorithm rca_diis
   SYM_IGNORE  TRUE
   print_input   true
   geom_opt_dmax   80
   pop_mulliken false
   XC_GRID 000075000302
$end

$molecule
0 1
C       -5.3451058359     0.2951689181     0.1116451892
C       -4.1260569393     1.1900006430     0.2393984519
H       -5.3072986549     -0.2711843603     -0.8187372579
H       -6.2602856018     0.8891285304     0.1207747915
H       -5.3992514316     -0.4130171989     0.9414747800
O       -2.9085510594     0.4710499835     0.1816298109
H       -4.1823144985     1.7780655916     1.1626746292
H       -4.0870784413     1.8956245775     -0.5901230383
H       -2.9868675372     -0.2176166849     -0.4784273563
$end
--------------------------------------------------------------

             Standard Nuclear Orientation (Angstroms)
    I     Atom           X                Y                Z
 ----------------------------------------------------------------
    1      C      -5.3451058359     0.2951689181     0.1116451892
    2      C      -4.1260569393     1.1900006430     0.2393984519
    3      H      -5.3072986549    -0.2711843603    -0.8187372579
    4      H      -6.2602856018     0.8891285304     0.1207747915
    5      H      -5.3992514316    -0.4130171989     0.9414747800
    6      O      -2.9085510594     0.4710499835     0.1816298109
    7      H      -4.1823144985     1.7780655916     1.1626746292
    8      H      -4.0870784413     1.8956245775    -0.5901230383
    9      H      -2.9868675372    -0.2176166849    -0.4784273563
 ----------------------------------------------------------------

    6    -154.9801957252      9.48E-05 Convergence criterion met
    6    -155.0488977434      5.59E-06 Convergence criterion met
 Total energy in the final basis set = -155.04889774

                    Orbital Energies (a.u.)
 --------------------------------------------------------------

 Alpha MOs
 -- Occupied --
-19.2443 -10.3274 -10.2782  -1.1254  -0.8509  -0.7259  -0.5863  -0.5521
 -0.5323  -0.4673  -0.4618  -0.4127  -0.3586

                    Cartesian Multipole Moments
 -----------------------------------------------------------------
    Charge (ESU x 10^10)
                 0.0000
    Dipole Moment (Debye)
         X      -1.5887      Y      -0.3095      Z      -0.8979
       Tot       1.8509
    Quadrupole Moments (Debye-Ang)
        XX      -9.6044     XY      -0.7535     YY     -19.0727
        XZ       1.9018     YZ       0.8696     ZZ     -19.3631

 Total job time:  10.89s(wall), 55.91s(cpu)
        *  Thank you very much for using Q-Chem.  Have a nice day.  *
