 Q-Chem 5.3 (devel), Q-Chem, Inc., Pleasanton, CA (2020)
 Q-Chem 5.3.0 for Intel X86 EM64T Linux

User input:
--------------------------------------------------------------
$rem
   JOBTYPE  sp
   EXCHANGE   omegaB97X-D
   BASIS   6-311+G(2df,2pd)
   UNRESTRICTED   False
   max_scf_cycles   250
   geom_opt_max_cycles   1500
   basis2 6-31G*
   scf_algorithm rca_diis
   SYM_IGNORE  TRUE
   print_input   true
   geom_opt_dmax   80
   pop_mulliken false
   XC_GRID 000075000302
$end

$molecule
0 1
C       -5.4662638447     0.2935676637     0.1601643138
C       -4.1418078135     1.0335293187     0.1975527448
H       -5.5242302130     -0.3412440138     -0.7238328304
H       -6.2992937713     0.9978469245     0.1383185227
H       -5.5867677647     -0.3377076290     1.0433668850
O       -3.0258736047     0.1636117664     0.1755953316
H       -4.0996084944     1.6916230062     1.0730846474
H       -4.0366590133     1.6642180804     -0.6848903291
H       -2.4223054804     0.4517748831     -0.5090492858
$end
--------------------------------------------------------------

             Standard Nuclear Orientation (Angstroms)
    I     Atom           X                Y                Z
 ----------------------------------------------------------------
    1      C      -5.4662638447     0.2935676637     0.1601643138
    2      C      -4.1418078135     1.0335293187     0.1975527448
    3      H      -5.5242302130    -0.3412440138    -0.7238328304
    4      H      -6.2992937713     0.9978469245     0.1383185227
    5      H      -5.5867677647    -0.3377076290     1.0433668850
    6      O      -3.0258736047     0.1636117664     0.1755953316
    7      H      -4.0996084944     1.6916230062     1.0730846474
    8      H      -4.0366590133     1.6642180804    -0.6848903291
    9      H      -2.4223054804     0.4517748831    -0.5090492858
 ----------------------------------------------------------------

    6    -154.9787380627      8.10E-05 Convergence criterion met
    6    -155.0479704936      6.27E-06 Convergence criterion met
 Total energy in the final basis set = -155.04797049

                    Orbital Energies (a.u.)
 --------------------------------------------------------------

 Alpha MOs
 -- Occupied --
-19.2451 -10.3278 -10.2702  -1.1257  -0.8489  -0.7113  -0.6100  -0.5535
 -0.4947  -0.4784  -0.4551  -0.4076  -0.3616

                    Cartesian Multipole Moments
 -----------------------------------------------------------------
    Charge (ESU x 10^10)
                 0.0000
    Dipole Moment (Debye)
         X      -0.3151      Y       1.3119      Z      -1.0926
       Tot       1.7361
    Quadrupole Moments (Debye-Ang)
        XX     -16.2066     XY      -4.3338     YY     -19.4172
        XZ       1.9646     YZ      -0.3318     ZZ     -19.3780

 Total job time:  10.74s(wall), 55.08s(cpu)
        *  Thank you very much for using Q-Chem.  Have a nice day.  *
