 Q-Chem 5.3 (devel), Q-Chem, Inc., Pleasanton, CA (2020)
 Q-Chem 5.3.0 for Intel X86 EM64T Linux

User input:
--------------------------------------------------------------
$rem
   JOBTYPE  sp
   EXCHANGE   omegaB97X-D
   BASIS   6-311+G(2df,2pd)
   UNRESTRICTED   False
   max_scf_cycles   250
   geom_opt_max_cycles   1500
   basis2 6-31G*
   scf_algorithm rca_diis
   SYM_IGNORE  TRUE
   print_input   true
   geom_opt_dmax   80
   pop_mulliken false
   XC_GRID 000075000302
$end

$molecule
0 1
C       -5.3741896680     0.3075013295     0.0631356858
C       -4.1328974105     1.1672192442     0.2154628440
H       -5.1935620824     -0.5021924152     -0.6436645914
H       -6.2129618657     0.9044512367     -0.2981638897
H       -5.6655709854     -0.1318644888     1.0197605220
O       -3.0063827473     0.6281086307     -0.4500236654
H       -3.9117909505     1.3294557845     1.2766958225
H       -4.2948142224     2.1469659727     -0.2333240285
H       -2.8106400677     -0.2324252943     -0.0795686992
$end
--------------------------------------------------------------

             Standard Nuclear Orientation (Angstroms)
    I     Atom           X                Y                Z
 ----------------------------------------------------------------
    1      C      -5.3741896680     0.3075013295     0.0631356858
    2      C      -4.1328974105     1.1672192442     0.2154628440
    3      H      -5.1935620824    -0.5021924152    -0.6436645914
    4      H      -6.2129618657     0.9044512367    -0.2981638897
    5      H      -5.6655709854    -0.1318644888     1.0197605220
    6      O      -3.0063827473     0.6281086307    -0.4500236654
    7      H      -3.9117909505     1.3294557845     1.2766958225
    8      H      -4.2948142224     2.1469659727    -0.2333240285
    9      H      -2.8106400677    -0.2324252943    -0.0795686992
 ----------------------------------------------------------------

    7    -154.9768882232      7.86E-06 Convergence criterion met
    6    -155.0455879728      5.67E-06 Convergence criterion met
 Total energy in the final basis set = -155.04558797

                    Orbital Energies (a.u.)
 --------------------------------------------------------------

 Alpha MOs
 -- Occupied --
-19.2456 -10.3260 -10.2721  -1.1258  -0.8492  -0.7224  -0.5954  -0.5451
 -0.5245  -0.4690  -0.4575  -0.4081  -0.3616

                    Cartesian Multipole Moments
 -----------------------------------------------------------------
    Charge (ESU x 10^10)
                -0.0000
    Dipole Moment (Debye)
         X      -0.9992      Y      -0.7787      Z       1.2115
       Tot       1.7528
    Quadrupole Moments (Debye-Ang)
        XX     -13.1784     XY       0.2911     YY     -19.0882
        XZ      -3.3777     YZ       0.5954     ZZ     -20.7974

 Total job time:  11.19s(wall), 57.81s(cpu)
        *  Thank you very much for using Q-Chem.  Have a nice day.  *
