 Q-Chem 5.3 (devel), Q-Chem, Inc., Pleasanton, CA (2020)
 Q-Chem 5.3.0 for Intel X86 EM64T Linux

User input:
--------------------------------------------------------------
$rem
   JOBTYPE  sp
   EXCHANGE   omegaB97X-D
   BASIS   6-311+G(2df,2pd)
   UNRESTRICTED   False
   max_scf_cycles   250
   geom_opt_max_cycles   1500
   basis2 6-31G*
   scf_algorithm rca_diis
   SYM_IGNORE  TRUE
   print_input   true
   geom_opt_dmax   80
   pop_mulliken false
   XC_GRID 000075000302
$end

$molecule
0 1
C       -5.4091319866     0.2901859726     0.1821596944
C       -4.1588117305     1.1180080403     -0.0513671899
H       -5.6265341686     -0.3273537383     -0.6891484678
H       -6.2672530882     0.9361393293     0.3739872480
H       -5.2873554718     -0.3672748916     1.0458680736
O       -3.0253975600     0.3271693393     -0.3554959475
H       -3.9600882710     1.7578785104     0.8160997919
H       -4.2953063507     1.7738166279     -0.9109104861
H       -2.5729313723     0.1086508100     0.4591172835
$end
--------------------------------------------------------------

             Standard Nuclear Orientation (Angstroms)
    I     Atom           X                Y                Z
 ----------------------------------------------------------------
    1      C      -5.4091319866     0.2901859726     0.1821596944
    2      C      -4.1588117305     1.1180080403    -0.0513671899
    3      H      -5.6265341686    -0.3273537383    -0.6891484678
    4      H      -6.2672530882     0.9361393293     0.3739872480
    5      H      -5.2873554718    -0.3672748916     1.0458680736
    6      O      -3.0253975600     0.3271693393    -0.3554959475
    7      H      -3.9600882710     1.7578785104     0.8160997919
    8      H      -4.2953063507     1.7738166279    -0.9109104861
    9      H      -2.5729313723     0.1086508100     0.4591172835
 ----------------------------------------------------------------

    6    -154.9815269060      9.84E-05 Convergence criterion met
    6    -155.0500013854      5.96E-06 Convergence criterion met
 Total energy in the final basis set = -155.05000139

                    Orbital Energies (a.u.)
 --------------------------------------------------------------

 Alpha MOs
 -- Occupied --
-19.2462 -10.3273 -10.2704  -1.1261  -0.8486  -0.7174  -0.6055  -0.5453
 -0.5075  -0.4759  -0.4554  -0.4092  -0.3630

                    Cartesian Multipole Moments
 -----------------------------------------------------------------
    Charge (ESU x 10^10)
                 0.0000
    Dipole Moment (Debye)
         X      -0.5515      Y       0.4684      Z       1.5817
       Tot       1.7393
    Quadrupole Moments (Debye-Ang)
        XX     -15.3503     XY      -2.7482     YY     -19.4925
        XZ      -3.6151     YZ       0.0164     ZZ     -19.6911

 Total job time:  10.80s(wall), 55.60s(cpu)
        *  Thank you very much for using Q-Chem.  Have a nice day.  *
