 Q-Chem 5.3 (devel), Q-Chem, Inc., Pleasanton, CA (2020)
 Q-Chem 5.3.0 for Intel X86 EM64T Linux

User input:
--------------------------------------------------------------
$rem
   JOBTYPE  sp
   EXCHANGE   omegaB97X-D
   BASIS   6-311+G(2df,2pd)
   UNRESTRICTED   False
   max_scf_cycles   250
   geom_opt_max_cycles   1500
   basis2 6-31G*
   scf_algorithm rca_diis
   SYM_IGNORE  TRUE
   print_input   true
   geom_opt_dmax   80
   pop_mulliken false
   XC_GRID 000075000302
$end

$molecule
0 1
C       -5.4939617846     0.2947813218     0.1690422006
C       -4.1500947409     0.9978273421     0.1154456827
H       -5.6360591952     -0.3254147782     -0.7158092221
H       -6.3060793984     1.0217006968     0.2188275204
H       -5.5655337752     -0.3456436053     1.0509774785
O       -3.0639484207     0.0982841356     -0.0014133135
H       -4.0236927245     1.6418452760     0.9933338461
H       -4.0937878380     1.6380727434     -0.7645802952
H       -2.2696521225     0.5957668678     -0.1955138972
$end
--------------------------------------------------------------

             Standard Nuclear Orientation (Angstroms)
    I     Atom           X                Y                Z
 ----------------------------------------------------------------
    1      C      -5.4939617846     0.2947813218     0.1690422006
    2      C      -4.1500947409     0.9978273421     0.1154456827
    3      H      -5.6360591952    -0.3254147782    -0.7158092221
    4      H      -6.3060793984     1.0217006968     0.2188275204
    5      H      -5.5655337752    -0.3456436053     1.0509774785
    6      O      -3.0639484207     0.0982841356    -0.0014133135
    7      H      -4.0236927245     1.6418452760     0.9933338461
    8      H      -4.0937878380     1.6380727434    -0.7645802952
    9      H      -2.2696521225     0.5957668678    -0.1955138972
 ----------------------------------------------------------------

    6    -154.9798991494      6.95E-05 Convergence criterion met
    6    -155.0489933529      6.13E-06 Convergence criterion met
 Total energy in the final basis set = -155.04899335

                    Orbital Energies (a.u.)
 --------------------------------------------------------------

 Alpha MOs
 -- Occupied --
-19.2450 -10.3273 -10.2720  -1.1253  -0.8499  -0.7093  -0.6091  -0.5568
 -0.4948  -0.4732  -0.4547  -0.4145  -0.3579

                    Cartesian Multipole Moments
 -----------------------------------------------------------------
    Charge (ESU x 10^10)
                 0.0000
    Dipole Moment (Debye)
         X      -0.0200      Y       1.6537      Z      -0.1999
       Tot       1.6658
    Quadrupole Moments (Debye-Ang)
        XX     -17.0314     XY      -4.7907     YY     -19.2172
        XZ       0.0092     YZ      -0.1462     ZZ     -20.0887

 Total job time:  10.71s(wall), 55.07s(cpu)
        *  Thank you very much for using Q-Chem.  Have a nice day.  *
