 Q-Chem 5.3 (devel), Q-Chem, Inc., Pleasanton, CA (2020)
 Q-Chem 5.3.0 for Intel X86 EM64T Linux

User input:
--------------------------------------------------------------
$rem
   JOBTYPE  sp
   EXCHANGE   omegaB97X-D
   BASIS   6-311+G(2df,2pd)
   UNRESTRICTED   False
   max_scf_cycles   250
   geom_opt_max_cycles   1500
   basis2 6-31G*
   scf_algorithm rca_diis
   SYM_IGNORE  TRUE
   print_input   true
   geom_opt_dmax   80
   pop_mulliken false
   XC_GRID 000075000302
$end

$molecule
0 1
C       -5.3721281383     0.3005136559     0.0842390290
C       -4.1245529568     1.1409257784     0.2852080694
H       -5.1055829156     -0.7142355656     -0.2107772053
H       -6.0061130848     0.7333628564     -0.6910867295
H       -5.9597206759     0.2465381903     1.0034224332
O       -3.0679930652     0.7712706415     -0.5805771866
H       -3.7996794244     1.0934716443     1.3309754860
H       -4.3333081292     2.1864689937     0.0598394253
H       -2.8337316096     -0.1410961949     -0.4109333214
$end
--------------------------------------------------------------

             Standard Nuclear Orientation (Angstroms)
    I     Atom           X                Y                Z
 ----------------------------------------------------------------
    1      C      -5.3721281383     0.3005136559     0.0842390290
    2      C      -4.1245529568     1.1409257784     0.2852080694
    3      H      -5.1055829156    -0.7142355656    -0.2107772053
    4      H      -6.0061130848     0.7333628564    -0.6910867295
    5      H      -5.9597206759     0.2465381903     1.0034224332
    6      O      -3.0679930652     0.7712706415    -0.5805771866
    7      H      -3.7996794244     1.0934716443     1.3309754860
    8      H      -4.3333081292     2.1864689937     0.0598394253
    9      H      -2.8337316096    -0.1410961949    -0.4109333214
 ----------------------------------------------------------------

    7    -154.9793902297      7.66E-06 Convergence criterion met
    6    -155.0479938685      5.64E-06 Convergence criterion met
 Total energy in the final basis set = -155.04799387

                    Orbital Energies (a.u.)
 --------------------------------------------------------------

 Alpha MOs
 -- Occupied --
-19.2458 -10.3267 -10.2740  -1.1259  -0.8497  -0.7231  -0.5954  -0.5456
 -0.5239  -0.4707  -0.4583  -0.4099  -0.3617

                    Cartesian Multipole Moments
 -----------------------------------------------------------------
    Charge (ESU x 10^10)
                 0.0000
    Dipole Moment (Debye)
         X      -0.8890      Y      -1.0160      Z       1.1525
       Tot       1.7751
    Quadrupole Moments (Debye-Ang)
        XX     -13.6576     XY       1.0819     YY     -19.5724
        XZ      -3.6571     YZ       1.3689     ZZ     -21.1200

 Total job time:  11.13s(wall), 57.40s(cpu)
        *  Thank you very much for using Q-Chem.  Have a nice day.  *
