 Q-Chem 5.3 (devel), Q-Chem, Inc., Pleasanton, CA (2020)
 Q-Chem 5.3.0 for Intel X86 EM64T Linux

User input:
--------------------------------------------------------------
$rem
   JOBTYPE  sp
   EXCHANGE   omegaB97X-D
   BASIS   6-311+G(2df,2pd)
   UNRESTRICTED   False
   max_scf_cycles   250
   geom_opt_max_cycles   1500
   basis2 6-31G*
   scf_algorithm rca_diis
   SYM_IGNORE  TRUE
   print_input   true
   geom_opt_dmax   80
   pop_mulliken false
   XC_GRID 000075000302
$end

$molecule
0 1
C       -5.3693195566     0.2928086650     0.0989376966
C       -4.1136943053     1.1125444016     0.3325259555
H       -5.1452540554     -0.7724622764     0.1517523656
H       -5.7936321541     0.5111483390     -0.8822411764
H       -6.1301042338     0.5201418802     0.8490061974
O       -3.1231679292     0.8932022080     -0.6540308521
H       -3.7115048490     0.9136853738     1.3325874160
H       -4.3429820963     2.1767482610     0.2832550977
H       -2.8731508201     -0.0305968523     -0.6414827002
$end
--------------------------------------------------------------

             Standard Nuclear Orientation (Angstroms)
    I     Atom           X                Y                Z
 ----------------------------------------------------------------
    1      C      -5.3693195566     0.2928086650     0.0989376966
    2      C      -4.1136943053     1.1125444016     0.3325259555
    3      H      -5.1452540554    -0.7724622764     0.1517523656
    4      H      -5.7936321541     0.5111483390    -0.8822411764
    5      H      -6.1301042338     0.5201418802     0.8490061974
    6      O      -3.1231679292     0.8932022080    -0.6540308521
    7      H      -3.7115048490     0.9136853738     1.3325874160
    8      H      -4.3429820963     2.1767482610     0.2832550977
    9      H      -2.8731508201    -0.0305968523    -0.6414827002
 ----------------------------------------------------------------

    7    -154.9826468536      7.48E-06 Convergence criterion met
    6    -155.0508839462      5.65E-06 Convergence criterion met
 Total energy in the final basis set = -155.05088395

                    Orbital Energies (a.u.)
 --------------------------------------------------------------

 Alpha MOs
 -- Occupied --
-19.2463 -10.3272 -10.2744  -1.1261  -0.8497  -0.7230  -0.5962  -0.5456
 -0.5232  -0.4691  -0.4588  -0.4118  -0.3628

                    Cartesian Multipole Moments
 -----------------------------------------------------------------
    Charge (ESU x 10^10)
                 0.0000
    Dipole Moment (Debye)
         X      -0.7933      Y      -1.1735      Z       1.0437
       Tot       1.7595
    Quadrupole Moments (Debye-Ang)
        XX     -14.1406     XY       1.7072     YY     -20.2439
        XZ      -3.5917     YZ       1.9408     ZZ     -21.0046

 Total job time:  11.12s(wall), 57.40s(cpu)
        *  Thank you very much for using Q-Chem.  Have a nice day.  *
