 Q-Chem 5.3 (devel), Q-Chem, Inc., Pleasanton, CA (2020)
 Q-Chem 5.3.0 for Intel X86 EM64T Linux

User input:
--------------------------------------------------------------
$rem
   JOBTYPE  sp
   EXCHANGE   omegaB97X-D
   BASIS   6-311+G(2df,2pd)
   UNRESTRICTED   False
   max_scf_cycles   250
   geom_opt_max_cycles   1500
   basis2 6-31G*
   scf_algorithm rca_diis
   SYM_IGNORE  TRUE
   print_input   true
   geom_opt_dmax   80
   pop_mulliken false
   XC_GRID 000075000302
$end

$molecule
0 1
C       -5.4754753235     0.2931291991     0.1746964930
C       -4.1582841634     1.0282065847     0.0079823394
H       -5.6920771495     -0.3074956199     -0.7085534109
H       -6.2933509214     0.9995689859     0.3245220868
H       -5.4458909770     -0.3709904711     1.0413834617
O       -3.0709232830     0.1572882856     -0.2404033817
H       -3.9584770790     1.6524531190     0.8865138356
H       -4.2028613275     1.6917452141     -0.8553019283
H       -2.3054697757     0.4733147026     0.2394705044
$end
--------------------------------------------------------------

             Standard Nuclear Orientation (Angstroms)
    I     Atom           X                Y                Z
 ----------------------------------------------------------------
    1      C      -5.4754753235     0.2931291991     0.1746964930
    2      C      -4.1582841634     1.0282065847     0.0079823394
    3      H      -5.6920771495    -0.3074956199    -0.7085534109
    4      H      -6.2933509214     0.9995689859     0.3245220868
    5      H      -5.4458909770    -0.3709904711     1.0413834617
    6      O      -3.0709232830     0.1572882856    -0.2404033817
    7      H      -3.9584770790     1.6524531190     0.8865138356
    8      H      -4.2028613275     1.6917452141    -0.8553019283
    9      H      -2.3054697757     0.4733147026     0.2394705044
 ----------------------------------------------------------------

    6    -154.9794252939      7.66E-05 Convergence criterion met
    6    -155.0486338053      6.24E-06 Convergence criterion met
 Total energy in the final basis set = -155.04863381

                    Orbital Energies (a.u.)
 --------------------------------------------------------------

 Alpha MOs
 -- Occupied --
-19.2451 -10.3271 -10.2705  -1.1254  -0.8492  -0.7108  -0.6104  -0.5517
 -0.4940  -0.4777  -0.4534  -0.4133  -0.3587

                    Cartesian Multipole Moments
 -----------------------------------------------------------------
    Charge (ESU x 10^10)
                 0.0000
    Dipole Moment (Debye)
         X      -0.0264      Y       1.3501      Z       1.0464
       Tot       1.7084
    Quadrupole Moments (Debye-Ang)
        XX     -17.3328     XY      -4.2642     YY     -19.4148
        XZ      -2.4729     YZ       0.3848     ZZ     -20.0818

 Total job time:  10.76s(wall), 55.35s(cpu)
        *  Thank you very much for using Q-Chem.  Have a nice day.  *
