 Q-Chem 5.3 (devel), Q-Chem, Inc., Pleasanton, CA (2020)
 Q-Chem 5.3.0 for Intel X86 EM64T Linux

User input:
--------------------------------------------------------------
$rem
   JOBTYPE  sp
   EXCHANGE   omegaB97X-D
   BASIS   6-311+G(2df,2pd)
   UNRESTRICTED   False
   max_scf_cycles   250
   geom_opt_max_cycles   1500
   basis2 6-31G*
   scf_algorithm rca_diis
   SYM_IGNORE  TRUE
   print_input   true
   geom_opt_dmax   80
   pop_mulliken false
   XC_GRID 000075000302
$end

$molecule
0 1
C       -5.3743902601     0.3086134142     0.0577131605
C       -4.1338437769     1.1715807413     0.1972005791
H       -5.2390714608     -0.4297964842     -0.7323732660
H       -6.2437799657     0.9219092467     -0.1840618095
H       -5.5889524020     -0.2213540373     0.9883978865
O       -2.9934499931     0.5965588934     -0.4122251560
H       -3.9382366902     1.3865504563     1.2540591721
H       -4.2808339915     2.1278723996     -0.3042278844
H       -2.8102514595     -0.2447146299     0.0058273179
$end
--------------------------------------------------------------

             Standard Nuclear Orientation (Angstroms)
    I     Atom           X                Y                Z
 ----------------------------------------------------------------
    1      C      -5.3743902601     0.3086134142     0.0577131605
    2      C      -4.1338437769     1.1715807413     0.1972005791
    3      H      -5.2390714608    -0.4297964842    -0.7323732660
    4      H      -6.2437799657     0.9219092467    -0.1840618095
    5      H      -5.5889524020    -0.2213540373     0.9883978865
    6      O      -2.9934499931     0.5965588934    -0.4122251560
    7      H      -3.9382366902     1.3865504563     1.2540591721
    8      H      -4.2808339915     2.1278723996    -0.3042278844
    9      H      -2.8102514595    -0.2447146299     0.0058273179
 ----------------------------------------------------------------

    7    -154.9781085964      7.78E-06 Convergence criterion met
    6    -155.0466688836      5.68E-06 Convergence criterion met
 Total energy in the final basis set = -155.04666888

                    Orbital Energies (a.u.)
 --------------------------------------------------------------

 Alpha MOs
 -- Occupied --
-19.2457 -10.3261 -10.2723  -1.1259  -0.8492  -0.7223  -0.5957  -0.5451
 -0.5243  -0.4685  -0.4576  -0.4088  -0.3620

                    Cartesian Multipole Moments
 -----------------------------------------------------------------
    Charge (ESU x 10^10)
                 0.0000
    Dipole Moment (Debye)
         X      -1.0303      Y      -0.7087      Z       1.2216
       Tot       1.7482
    Quadrupole Moments (Debye-Ang)
        XX     -12.9883     XY       0.0958     YY     -19.0303
        XZ      -3.3254     YZ       0.4100     ZZ     -20.6613

 Total job time:  11.11s(wall), 57.52s(cpu)
        *  Thank you very much for using Q-Chem.  Have a nice day.  *
