 Q-Chem 5.3 (devel), Q-Chem, Inc., Pleasanton, CA (2020)
 Q-Chem 5.3.0 for Intel X86 EM64T Linux

User input:
--------------------------------------------------------------
$rem
   JOBTYPE  sp
   EXCHANGE   omegaB97X-D
   BASIS   6-311+G(2df,2pd)
   UNRESTRICTED   False
   max_scf_cycles   250
   geom_opt_max_cycles   1500
   basis2 6-31G*
   scf_algorithm rca_diis
   SYM_IGNORE  TRUE
   print_input   true
   geom_opt_dmax   80
   pop_mulliken false
   XC_GRID 000075000302
$end

$molecule
0 1
C       -5.3487270986     0.3069355352     0.0481900668
C       -4.1294861170     1.2056332809     0.1426290144
H       -5.4302367362     -0.1224580830     -0.9501957386
H       -6.2586471500     0.8704156715     0.2602301824
H       -5.2881659029     -0.5115849796     0.7689070572
O       -2.9254735360     0.5328932424     -0.1741080686
H       -4.0673478740     1.6570456225     1.1395191453
H       -4.2050236686     2.0211907036     -0.5761828744
H       -2.9497019167     -0.3428509937     0.2113212157
$end
--------------------------------------------------------------

             Standard Nuclear Orientation (Angstroms)
    I     Atom           X                Y                Z
 ----------------------------------------------------------------
    1      C      -5.3487270986     0.3069355352     0.0481900668
    2      C      -4.1294861170     1.2056332809     0.1426290144
    3      H      -5.4302367362    -0.1224580830    -0.9501957386
    4      H      -6.2586471500     0.8704156715     0.2602301824
    5      H      -5.2881659029    -0.5115849796     0.7689070572
    6      O      -2.9254735360     0.5328932424    -0.1741080686
    7      H      -4.0673478740     1.6570456225     1.1395191453
    8      H      -4.2050236686     2.0211907036    -0.5761828744
    9      H      -2.9497019167    -0.3428509937     0.2113212157
 ----------------------------------------------------------------

    6    -154.9820800414      9.93E-05 Convergence criterion met
    6    -155.0504968043      5.53E-06 Convergence criterion met
 Total energy in the final basis set = -155.05049680

                    Orbital Energies (a.u.)
 --------------------------------------------------------------

 Alpha MOs
 -- Occupied --
-19.2455 -10.3271 -10.2779  -1.1257  -0.8509  -0.7262  -0.5884  -0.5474
 -0.5332  -0.4670  -0.4597  -0.4144  -0.3612

                    Cartesian Multipole Moments
 -----------------------------------------------------------------
    Charge (ESU x 10^10)
                 0.0000
    Dipole Moment (Debye)
         X      -1.4812      Y      -0.6405      Z       0.8638
       Tot       1.8304
    Quadrupole Moments (Debye-Ang)
        XX     -10.1937     XY       0.0460     YY     -18.7221
        XZ      -2.3866     YZ      -0.1917     ZZ     -20.1127

 Total job time:  10.89s(wall), 56.02s(cpu)
        *  Thank you very much for using Q-Chem.  Have a nice day.  *
