 Q-Chem 5.3 (devel), Q-Chem, Inc., Pleasanton, CA (2020)
 Q-Chem 5.3.0 for Intel X86 EM64T Linux

User input:
--------------------------------------------------------------
$rem
   JOBTYPE  sp
   EXCHANGE   omegaB97X-D
   BASIS   6-311+G(2df,2pd)
   UNRESTRICTED   False
   max_scf_cycles   250
   geom_opt_max_cycles   1500
   basis2 6-31G*
   scf_algorithm rca_diis
   SYM_IGNORE  TRUE
   print_input   true
   geom_opt_dmax   80
   pop_mulliken false
   XC_GRID 000075000302
$end

$molecule
0 1
C       -5.3450643020     0.2375718234     0.1414205785
C       -4.0226688020     0.9104857105     0.4601398383
H       -5.9508977766     0.1402547048     1.0421381238
H       -5.1793389375     -0.7568294789     -0.2758641301
H       -5.9118320658     0.8161905153     -0.5914171817
O       -3.4278337984     1.5163491259     -0.6719593953
H       -3.3330509581     0.1930195873     0.9195892781
H       -4.1727819731     1.7174188625     1.1769768400
H       -3.2593413864     0.8427591492     -1.3307139514
$end
--------------------------------------------------------------

             Standard Nuclear Orientation (Angstroms)
    I     Atom           X                Y                Z
 ----------------------------------------------------------------
    1      C      -5.3450643020     0.2375718234     0.1414205785
    2      C      -4.0226688020     0.9104857105     0.4601398383
    3      H      -5.9508977766     0.1402547048     1.0421381238
    4      H      -5.1793389375    -0.7568294789    -0.2758641301
    5      H      -5.9118320658     0.8161905153    -0.5914171817
    6      O      -3.4278337984     1.5163491259    -0.6719593953
    7      H      -3.3330509581     0.1930195873     0.9195892781
    8      H      -4.1727819731     1.7174188625     1.1769768400
    9      H      -3.2593413864     0.8427591492    -1.3307139514
 ----------------------------------------------------------------

    7    -154.9811618626      7.57E-06 Convergence criterion met
    6    -155.0494692817      5.66E-06 Convergence criterion met
 Total energy in the final basis set = -155.04946928

                    Orbital Energies (a.u.)
 --------------------------------------------------------------

 Alpha MOs
 -- Occupied --
-19.2461 -10.3268 -10.2733  -1.1260  -0.8495  -0.7226  -0.5962  -0.5457
 -0.5229  -0.4682  -0.4590  -0.4104  -0.3626

                    Cartesian Multipole Moments
 -----------------------------------------------------------------
    Charge (ESU x 10^10)
                 0.0000
    Dipole Moment (Debye)
         X      -0.4952      Y      -1.6638      Z       0.1992
       Tot       1.7473
    Quadrupole Moments (Debye-Ang)
        XX     -16.4539     XY       4.6469     YY     -24.2491
        XZ      -1.5123     YZ       2.0884     ZZ     -18.1635

 Total job time:  11.08s(wall), 57.05s(cpu)
        *  Thank you very much for using Q-Chem.  Have a nice day.  *
