 Q-Chem 5.3 (devel), Q-Chem, Inc., Pleasanton, CA (2020)
 Q-Chem 5.3.0 for Intel X86 EM64T Linux

User input:
--------------------------------------------------------------
$rem
   JOBTYPE  sp
   EXCHANGE   omegaB97X-D
   BASIS   6-311+G(2df,2pd)
   UNRESTRICTED   False
   max_scf_cycles   250
   geom_opt_max_cycles   1500
   basis2 6-31G*
   scf_algorithm rca_diis
   SYM_IGNORE  TRUE
   print_input   true
   geom_opt_dmax   80
   pop_mulliken false
   XC_GRID 000075000302
$end

$molecule
0 1
C       -5.3267336873     0.2003860764     0.1393812218
C       -3.9569435613     0.7774717235     0.4456035120
H       -6.1108466940     0.8680234621     0.4960659997
H       -5.4507690741     -0.7708614268     0.6207530998
H       -5.4603135930     0.0590051134     -0.9354416956
O       -3.5845743372     1.8111449381     -0.4462533603
H       -3.2026000127     -0.0177480302     0.4495469302
H       -3.9514494592     1.2316458404     1.4361720605
H       -3.5585795812     1.4581523031     -1.3355177681
$end
--------------------------------------------------------------

             Standard Nuclear Orientation (Angstroms)
    I     Atom           X                Y                Z
 ----------------------------------------------------------------
    1      C      -5.3267336873     0.2003860764     0.1393812218
    2      C      -3.9569435613     0.7774717235     0.4456035120
    3      H      -6.1108466940     0.8680234621     0.4960659997
    4      H      -5.4507690741    -0.7708614268     0.6207530998
    5      H      -5.4603135930     0.0590051134    -0.9354416956
    6      O      -3.5845743372     1.8111449381    -0.4462533603
    7      H      -3.2026000127    -0.0177480302     0.4495469302
    8      H      -3.9514494592     1.2316458404     1.4361720605
    9      H      -3.5585795812     1.4581523031    -1.3355177681
 ----------------------------------------------------------------

    7    -154.9810047769      7.55E-06 Convergence criterion met
    6    -155.0494525271      5.64E-06 Convergence criterion met
 Total energy in the final basis set = -155.04945253

                    Orbital Energies (a.u.)
 --------------------------------------------------------------

 Alpha MOs
 -- Occupied --
-19.2458 -10.3271 -10.2744  -1.1259  -0.8498  -0.7231  -0.5958  -0.5450
 -0.5238  -0.4714  -0.4578  -0.4110  -0.3619

                    Cartesian Multipole Moments
 -----------------------------------------------------------------
    Charge (ESU x 10^10)
                 0.0000
    Dipole Moment (Debye)
         X      -0.4736      Y      -1.6678      Z      -0.3747
       Tot       1.7738
    Quadrupole Moments (Debye-Ang)
        XX     -16.9150     XY       5.3453     YY     -25.3603
        XZ       0.8837     YZ       0.0117     ZZ     -16.9195

 Total job time:  11.06s(wall), 56.98s(cpu)
        *  Thank you very much for using Q-Chem.  Have a nice day.  *
