 Q-Chem 5.3 (devel), Q-Chem, Inc., Pleasanton, CA (2020)
 Q-Chem 5.3.0 for Intel X86 EM64T Linux

User input:
--------------------------------------------------------------
$rem
   JOBTYPE  sp
   EXCHANGE   omegaB97X-D
   BASIS   6-311+G(2df,2pd)
   UNRESTRICTED   False
   max_scf_cycles   250
   geom_opt_max_cycles   1500
   basis2 6-31G*
   scf_algorithm rca_diis
   SYM_IGNORE  TRUE
   print_input   true
   geom_opt_dmax   80
   pop_mulliken false
   XC_GRID 000075000302
$end

$molecule
0 1
C       -5.4763451425     0.2939749067     0.1629332406
C       -4.1439013334     1.0202310174     0.1793795658
H       -5.5554314049     -0.3389276923     -0.7207955527
H       -6.3023241855     1.0068089940     0.1557527699
H       -5.5887487049     -0.3373059657     1.0471992474
O       -3.0375006543     0.1389235033     0.1378773128
H       -4.0804790795     1.6765886617     1.0549345081
H       -4.0468434876     1.6510820978     -0.7038741077
H       -2.3712360073     0.5058444772     -0.4430969842
$end
--------------------------------------------------------------

             Standard Nuclear Orientation (Angstroms)
    I     Atom           X                Y                Z
 ----------------------------------------------------------------
    1      C      -5.4763451425     0.2939749067     0.1629332406
    2      C      -4.1439013334     1.0202310174     0.1793795658
    3      H      -5.5554314049    -0.3389276923    -0.7207955527
    4      H      -6.3023241855     1.0068089940     0.1557527699
    5      H      -5.5887487049    -0.3373059657     1.0471992474
    6      O      -3.0375006543     0.1389235033     0.1378773128
    7      H      -4.0804790795     1.6765886617     1.0549345081
    8      H      -4.0468434876     1.6510820978    -0.7038741077
    9      H      -2.3712360073     0.5058444772    -0.4430969842
 ----------------------------------------------------------------

    6    -154.9789574710      7.71E-05 Convergence criterion met
    6    -155.0481941773      6.26E-06 Convergence criterion met
 Total energy in the final basis set = -155.04819418

                    Orbital Energies (a.u.)
 --------------------------------------------------------------

 Alpha MOs
 -- Occupied --
-19.2451 -10.3277 -10.2707  -1.1256  -0.8492  -0.7105  -0.6100  -0.5546
 -0.4942  -0.4771  -0.4550  -0.4094  -0.3606

                    Cartesian Multipole Moments
 -----------------------------------------------------------------
    Charge (ESU x 10^10)
                 0.0000
    Dipole Moment (Debye)
         X      -0.2183      Y       1.4392      Z      -0.9100
       Tot       1.7167
    Quadrupole Moments (Debye-Ang)
        XX     -16.4949     XY      -4.5209     YY     -19.3542
        XZ       1.5390     YZ      -0.3600     ZZ     -19.5803

 Total job time:  10.75s(wall), 55.20s(cpu)
        *  Thank you very much for using Q-Chem.  Have a nice day.  *
