 Q-Chem 5.3 (devel), Q-Chem, Inc., Pleasanton, CA (2020)
 Q-Chem 5.3.0 for Intel X86 EM64T Linux

User input:
--------------------------------------------------------------
$rem
   JOBTYPE  sp
   EXCHANGE   omegaB97X-D
   BASIS   6-311+G(2df,2pd)
   UNRESTRICTED   False
   max_scf_cycles   250
   geom_opt_max_cycles   1500
   basis2 6-31G*
   scf_algorithm rca_diis
   SYM_IGNORE  TRUE
   print_input   true
   geom_opt_dmax   80
   pop_mulliken false
   XC_GRID 000075000302
$end

$molecule
0 1
C       -5.3244208010     0.1958713549     0.1377033295
C       -3.9489054801     0.7617455176     0.4391481145
H       -6.0987919555     0.9209842034     0.3874183449
H       -5.5003190122     -0.7137662623     0.7139364413
H       -5.4202889911     -0.0564486528     -0.9207013074
O       -3.6010598308     1.8404719030     -0.4081420507
H       -3.1927856302     -0.0299079279     0.3844508459
H       -3.9201488910     1.1653520627     1.4509806987
H       -3.5960894081     1.5329178015     -1.3144844166
$end
--------------------------------------------------------------

             Standard Nuclear Orientation (Angstroms)
    I     Atom           X                Y                Z
 ----------------------------------------------------------------
    1      C      -5.3244208010     0.1958713549     0.1377033295
    2      C      -3.9489054801     0.7617455176     0.4391481145
    3      H      -6.0987919555     0.9209842034     0.3874183449
    4      H      -5.5003190122    -0.7137662623     0.7139364413
    5      H      -5.4202889911    -0.0564486528    -0.9207013074
    6      O      -3.6010598308     1.8404719030    -0.4081420507
    7      H      -3.1927856302    -0.0299079279     0.3844508459
    8      H      -3.9201488910     1.1653520627     1.4509806987
    9      H      -3.5960894081     1.5329178015    -1.3144844166
 ----------------------------------------------------------------

    7    -154.9822070543      7.48E-06 Convergence criterion met
    6    -155.0505212296      5.65E-06 Convergence criterion met
 Total energy in the final basis set = -155.05052123

                    Orbital Energies (a.u.)
 --------------------------------------------------------------

 Alpha MOs
 -- Occupied --
-19.2461 -10.3272 -10.2745  -1.1260  -0.8498  -0.7231  -0.5960  -0.5451
 -0.5236  -0.4707  -0.4580  -0.4117  -0.3623

                    Cartesian Multipole Moments
 -----------------------------------------------------------------
    Charge (ESU x 10^10)
                 0.0000
    Dipole Moment (Debye)
         X      -0.4763      Y      -1.6445      Z      -0.4417
       Tot       1.7681
    Quadrupole Moments (Debye-Ang)
        XX     -16.8842     XY       5.2995     YY     -25.3620
        XZ       1.1846     YZ      -0.3322     ZZ     -16.8926

 Total job time:  11.07s(wall), 57.22s(cpu)
        *  Thank you very much for using Q-Chem.  Have a nice day.  *
