 Q-Chem 5.3 (devel), Q-Chem, Inc., Pleasanton, CA (2020)
 Q-Chem 5.3.0 for Intel X86 EM64T Linux

User input:
--------------------------------------------------------------
$rem
   JOBTYPE  sp
   EXCHANGE   omegaB97X-D
   BASIS   6-311+G(2df,2pd)
   UNRESTRICTED   False
   max_scf_cycles   250
   geom_opt_max_cycles   1500
   basis2 6-31G*
   scf_algorithm rca_diis
   SYM_IGNORE  TRUE
   print_input   true
   geom_opt_dmax   80
   pop_mulliken false
   XC_GRID 000075000302
$end

$molecule
0 1
C       -5.4529304718     0.2918081397     0.1768198737
C       -4.1596932801     1.0601847832     -0.0238286355
H       -5.6799243139     -0.3101385674     -0.7029135373
H       -6.2833996255     0.9769963262     0.3536347722
H       -5.3819727255     -0.3751697319     1.0388999098
O       -3.0586966166     0.2177146308     -0.3077268976
H       -3.9502029088     1.6853481409     0.8517904352
H       -4.2455206968     1.7261934864     -0.8820805942
H       -2.3904693611     0.3442827921     0.3657146739
$end
--------------------------------------------------------------

             Standard Nuclear Orientation (Angstroms)
    I     Atom           X                Y                Z
 ----------------------------------------------------------------
    1      C      -5.4529304718     0.2918081397     0.1768198737
    2      C      -4.1596932801     1.0601847832    -0.0238286355
    3      H      -5.6799243139    -0.3101385674    -0.7029135373
    4      H      -6.2833996255     0.9769963262     0.3536347722
    5      H      -5.3819727255    -0.3751697319     1.0388999098
    6      O      -3.0586966166     0.2177146308    -0.3077268976
    7      H      -3.9502029088     1.6853481409     0.8517904352
    8      H      -4.2455206968     1.7261934864    -0.8820805942
    9      H      -2.3904693611     0.3442827921     0.3657146739
 ----------------------------------------------------------------

    6    -154.9797104260      8.55E-05 Convergence criterion met
    6    -155.0487629695      6.22E-06 Convergence criterion met
 Total energy in the final basis set = -155.04876297

                    Orbital Energies (a.u.)
 --------------------------------------------------------------

 Alpha MOs
 -- Occupied --
-19.2455 -10.3271 -10.2696  -1.1256  -0.8487  -0.7128  -0.6101  -0.5485
 -0.4959  -0.4796  -0.4537  -0.4107  -0.3607

                    Cartesian Multipole Moments
 -----------------------------------------------------------------
    Charge (ESU x 10^10)
                 0.0000
    Dipole Moment (Debye)
         X      -0.1701      Y       1.0384      Z       1.3809
       Tot       1.7362
    Quadrupole Moments (Debye-Ang)
        XX     -16.9701     XY      -3.7700     YY     -19.5203
        XZ      -3.1435     YZ       0.3462     ZZ     -19.8811

 Total job time:  10.79s(wall), 55.52s(cpu)
        *  Thank you very much for using Q-Chem.  Have a nice day.  *
