 Q-Chem 5.3 (devel), Q-Chem, Inc., Pleasanton, CA (2020)
 Q-Chem 5.3.0 for Intel X86 EM64T Linux

User input:
--------------------------------------------------------------
$rem
   JOBTYPE  sp
   EXCHANGE   omegaB97X-D
   BASIS   6-311+G(2df,2pd)
   UNRESTRICTED   False
   max_scf_cycles   250
   geom_opt_max_cycles   1500
   basis2 6-31G*
   scf_algorithm rca_diis
   SYM_IGNORE  TRUE
   print_input   true
   geom_opt_dmax   80
   pop_mulliken false
   XC_GRID 000075000302
$end

$molecule
0 1
C       -5.3744050078     0.3100401427     0.0468205383
C       -4.1343466835     1.1775372415     0.1600859802
H       -5.3531550667     -0.2678011833     -0.8770002012
H       -6.2754285835     0.9253081868     0.0520286505
H       -5.4421069173     -0.3870081763     0.8850428024
O       -2.9708351304     0.5392735174     -0.3312470214
H       -3.9886327009     1.4971872539     1.1983612334
H       -4.2479657198     2.0789823213     -0.4415932080
H       -2.8159341901     -0.2562993041     0.1778112259
$end
--------------------------------------------------------------

             Standard Nuclear Orientation (Angstroms)
    I     Atom           X                Y                Z
 ----------------------------------------------------------------
    1      C      -5.3744050078     0.3100401427     0.0468205383
    2      C      -4.1343466835     1.1775372415     0.1600859802
    3      H      -5.3531550667    -0.2678011833    -0.8770002012
    4      H      -6.2754285835     0.9253081868     0.0520286505
    5      H      -5.4421069173    -0.3870081763     0.8850428024
    6      O      -2.9708351304     0.5392735174    -0.3312470214
    7      H      -3.9886327009     1.4971872539     1.1983612334
    8      H      -4.2479657198     2.0789823213    -0.4415932080
    9      H      -2.8159341901    -0.2562993041     0.1778112259
 ----------------------------------------------------------------

    7    -154.9812295515      7.57E-06 Convergence criterion met
    6    -155.0495172164      5.67E-06 Convergence criterion met
 Total energy in the final basis set = -155.04951722

                    Orbital Energies (a.u.)
 --------------------------------------------------------------

 Alpha MOs
 -- Occupied --
-19.2461 -10.3268 -10.2733  -1.1261  -0.8495  -0.7226  -0.5962  -0.5451
 -0.5239  -0.4683  -0.4581  -0.4109  -0.3626

                    Cartesian Multipole Moments
 -----------------------------------------------------------------
    Charge (ESU x 10^10)
                 0.0000
    Dipole Moment (Debye)
         X      -1.1008      Y      -0.5604      Z       1.2384
       Tot       1.7491
    Quadrupole Moments (Debye-Ang)
        XX     -12.5263     XY      -0.2899     YY     -18.9604
        XZ      -3.2767     YZ       0.0437     ZZ     -20.3380

 Total job time:  11.12s(wall), 57.26s(cpu)
        *  Thank you very much for using Q-Chem.  Have a nice day.  *
