 Q-Chem 5.3 (devel), Q-Chem, Inc., Pleasanton, CA (2020)
 Q-Chem 5.3.0 for Intel X86 EM64T Linux

User input:
--------------------------------------------------------------
$rem
   JOBTYPE  sp
   EXCHANGE   omegaB97X-D
   BASIS   6-311+G(2df,2pd)
   UNRESTRICTED   False
   max_scf_cycles   250
   geom_opt_max_cycles   1500
   basis2 6-31G*
   scf_algorithm rca_diis
   SYM_IGNORE  TRUE
   print_input   true
   geom_opt_dmax   80
   pop_mulliken false
   XC_GRID 000075000302
$end

$molecule
0 1
C       -5.3827008068     0.2930711384     0.1328462243
C       -4.1300656574     1.1416061907     0.2512454294
H       -5.3492136626     -0.3130822703     -0.7722800503
H       -6.2720946164     0.9240187708     0.0966645828
H       -5.4839726409     -0.3766701817     0.9897400633
O       -2.9429126602     0.3714013779     0.2508688836
H       -4.1809210044     1.7698926707     1.1479583317
H       -4.0440583388     1.8094264702     -0.6055796275
H       -2.8168706125     -0.0024441666     -0.6211538373
$end
--------------------------------------------------------------

             Standard Nuclear Orientation (Angstroms)
    I     Atom           X                Y                Z
 ----------------------------------------------------------------
    1      C      -5.3827008068     0.2930711384     0.1328462243
    2      C      -4.1300656574     1.1416061907     0.2512454294
    3      H      -5.3492136626    -0.3130822703    -0.7722800503
    4      H      -6.2720946164     0.9240187708     0.0966645828
    5      H      -5.4839726409    -0.3766701817     0.9897400633
    6      O      -2.9429126602     0.3714013779     0.2508688836
    7      H      -4.1809210044     1.7698926707     1.1479583317
    8      H      -4.0440583388     1.8094264702    -0.6055796275
    9      H      -2.8168706125    -0.0024441666    -0.6211538373
 ----------------------------------------------------------------

    6    -154.9804260004      9.77E-05 Convergence criterion met
    6    -155.0489752752      5.82E-06 Convergence criterion met
 Total energy in the final basis set = -155.04897528

                    Orbital Energies (a.u.)
 --------------------------------------------------------------

 Alpha MOs
 -- Occupied --
-19.2451 -10.3279 -10.2731  -1.1259  -0.8493  -0.7206  -0.5983  -0.5493
 -0.5180  -0.4723  -0.4590  -0.4078  -0.3612

                    Cartesian Multipole Moments
 -----------------------------------------------------------------
    Charge (ESU x 10^10)
                 0.0000
    Dipole Moment (Debye)
         X      -1.1661      Y       0.2290      Z      -1.3124
       Tot       1.7704
    Quadrupole Moments (Debye-Ang)
        XX     -12.2368     XY      -2.2032     YY     -19.3871
        XZ       2.7626     YZ       0.6140     ZZ     -18.9165

 Total job time:  10.85s(wall), 55.86s(cpu)
        *  Thank you very much for using Q-Chem.  Have a nice day.  *
