 Q-Chem 5.3 (devel), Q-Chem, Inc., Pleasanton, CA (2020)
 Q-Chem 5.3.0 for Intel X86 EM64T Linux

User input:
--------------------------------------------------------------
$rem
   JOBTYPE  sp
   EXCHANGE   omegaB97X-D
   BASIS   6-311+G(2df,2pd)
   UNRESTRICTED   False
   max_scf_cycles   250
   geom_opt_max_cycles   1500
   basis2 6-31G*
   scf_algorithm rca_diis
   SYM_IGNORE  TRUE
   print_input   true
   geom_opt_dmax   80
   pop_mulliken false
   XC_GRID 000075000302
$end

$molecule
0 1
C       -5.3668909126     0.2866351450     0.1079322621
C       -4.1044168479     1.0899234445     0.3609383258
H       -5.2180876610     -0.7564589248     0.3865166669
H       -5.6445111357     0.3292629213     -0.9463614631
H       -6.2039279502     0.6800367142     0.6890352433
O       -3.1633411924     0.9795289606     -0.6901266116
H       -3.6522037989     0.7952788953     1.3149363051
H       -4.3400329075     2.1516166288     0.4303862753
H       -2.9093975938     0.0613962151     -0.7829470037
$end
--------------------------------------------------------------

             Standard Nuclear Orientation (Angstroms)
    I     Atom           X                Y                Z
 ----------------------------------------------------------------
    1      C      -5.3668909126     0.2866351450     0.1079322621
    2      C      -4.1044168479     1.0899234445     0.3609383258
    3      H      -5.2180876610    -0.7564589248     0.3865166669
    4      H      -5.6445111357     0.3292629213    -0.9463614631
    5      H      -6.2039279502     0.6800367142     0.6890352433
    6      O      -3.1633411924     0.9795289606    -0.6901266116
    7      H      -3.6522037989     0.7952788953     1.3149363051
    8      H      -4.3400329075     2.1516166288     0.4303862753
    9      H      -2.9093975938     0.0613962151    -0.7829470037
 ----------------------------------------------------------------

    7    -154.9811892346      7.58E-06 Convergence criterion met
    6    -155.0494784062      5.67E-06 Convergence criterion met
 Total energy in the final basis set = -155.04947841

                    Orbital Energies (a.u.)
 --------------------------------------------------------------

 Alpha MOs
 -- Occupied --
-19.2462 -10.3268 -10.2733  -1.1261  -0.8495  -0.7226  -0.5963  -0.5453
 -0.5234  -0.4687  -0.4579  -0.4107  -0.3627

                    Cartesian Multipole Moments
 -----------------------------------------------------------------
    Charge (ESU x 10^10)
                 0.0000
    Dipole Moment (Debye)
         X      -0.7293      Y      -1.2813      Z       0.9378
       Tot       1.7473
    Quadrupole Moments (Debye-Ang)
        XX     -14.5920     XY       2.1525     YY     -20.7809
        XZ      -3.3819     YZ       2.2625     ZZ     -20.7566

 Total job time:  11.12s(wall), 57.17s(cpu)
        *  Thank you very much for using Q-Chem.  Have a nice day.  *
