 Q-Chem 5.3 (devel), Q-Chem, Inc., Pleasanton, CA (2020)
 Q-Chem 5.3.0 for Intel X86 EM64T Linux

User input:
--------------------------------------------------------------
$rem
   JOBTYPE  sp
   EXCHANGE   omegaB97X-D
   BASIS   6-311+G(2df,2pd)
   UNRESTRICTED   False
   max_scf_cycles   250
   geom_opt_max_cycles   1500
   basis2 6-31G*
   scf_algorithm rca_diis
   SYM_IGNORE  TRUE
   print_input   true
   geom_opt_dmax   80
   pop_mulliken false
   XC_GRID 000075000302
$end

$molecule
0 1
C       -5.4951049101     0.2947690953     0.1704936854
C       -4.1520551156     0.9971076864     0.0926304905
H       -5.6563548059     -0.3202054147     -0.7147191365
H       -6.3053611183     1.0219961284     0.2415647337
H       -5.5486338989     -0.3506795173     1.0500431197
O       -3.0693945065     0.0974418251     -0.0522666379
H       -4.0066231465     1.6359555341     0.9713495391
H       -4.1137477438     1.6423771741     -0.7846894035
H       -2.2555347543     0.5984574887     -0.1040963903
$end
--------------------------------------------------------------

             Standard Nuclear Orientation (Angstroms)
    I     Atom           X                Y                Z
 ----------------------------------------------------------------
    1      C      -5.4951049101     0.2947690953     0.1704936854
    2      C      -4.1520551156     0.9971076864     0.0926304905
    3      H      -5.6563548059    -0.3202054147    -0.7147191365
    4      H      -6.3053611183     1.0219961284     0.2415647337
    5      H      -5.5486338989    -0.3506795173     1.0500431197
    6      O      -3.0693945065     0.0974418251    -0.0522666379
    7      H      -4.0066231465     1.6359555341     0.9713495391
    8      H      -4.1137477438     1.6423771741    -0.7846894035
    9      H      -2.2555347543     0.5984574887    -0.1040963903
 ----------------------------------------------------------------

    6    -154.9800099976      6.88E-05 Convergence criterion met
    6    -155.0490900219      6.12E-06 Convergence criterion met
 Total energy in the final basis set = -155.04909002

                    Orbital Energies (a.u.)
 --------------------------------------------------------------

 Alpha MOs
 -- Occupied --
-19.2450 -10.3272 -10.2720  -1.1253  -0.8499  -0.7092  -0.6090  -0.5566
 -0.4949  -0.4729  -0.4544  -0.4154  -0.3574

                    Cartesian Multipole Moments
 -----------------------------------------------------------------
    Charge (ESU x 10^10)
                 0.0000
    Dipole Moment (Debye)
         X       0.0148      Y       1.6597      Z       0.0662
       Tot       1.6611
    Quadrupole Moments (Debye-Ang)
        XX     -17.1549     XY      -4.7803     YY     -19.2150
        XZ      -0.5344     YZ      -0.0146     ZZ     -20.1801

 Total job time:  10.64s(wall), 54.69s(cpu)
        *  Thank you very much for using Q-Chem.  Have a nice day.  *
