 Q-Chem 5.3 (devel), Q-Chem, Inc., Pleasanton, CA (2020)
 Q-Chem 5.3.0 for Intel X86 EM64T Linux

User input:
--------------------------------------------------------------
$rem
   JOBTYPE  sp
   EXCHANGE   omegaB97X-D
   BASIS   6-311+G(2df,2pd)
   UNRESTRICTED   False
   max_scf_cycles   250
   geom_opt_max_cycles   1500
   basis2 6-31G*
   scf_algorithm rca_diis
   SYM_IGNORE  TRUE
   print_input   true
   geom_opt_dmax   80
   pop_mulliken false
   XC_GRID 000075000302
$end

$molecule
0 1
C       -5.3296901912     0.2974444015     0.0955071114
C       -4.1248345465     1.2117339390     0.2200962011
H       -5.3075982521     -0.2360955472     -0.8545686678
H       -6.2554317570     0.8722408915     0.1506153959
H       -5.3465975527     -0.4394733879     0.9015733522
O       -2.8959409662     0.5197715178     0.1036642034
H       -4.1659839117     1.7668393404     1.1643360645
H       -4.1230275450     1.9457763010     -0.5853284747
H       -3.0537052774     -0.3210174561     -0.3255851858
$end
--------------------------------------------------------------

             Standard Nuclear Orientation (Angstroms)
    I     Atom           X                Y                Z
 ----------------------------------------------------------------
    1      C      -5.3296901912     0.2974444015     0.0955071114
    2      C      -4.1248345465     1.2117339390     0.2200962011
    3      H      -5.3075982521    -0.2360955472    -0.8545686678
    4      H      -6.2554317570     0.8722408915     0.1506153959
    5      H      -5.3465975527    -0.4394733879     0.9015733522
    6      O      -2.8959409662     0.5197715178     0.1036642034
    7      H      -4.1659839117     1.7668393404     1.1643360645
    8      H      -4.1230275450     1.9457763010    -0.5853284747
    9      H      -3.0537052774    -0.3210174561    -0.3255851858
 ----------------------------------------------------------------

    6    -154.9796554291      9.20E-05 Convergence criterion met
    6    -155.0485383764      5.50E-06 Convergence criterion met
 Total energy in the final basis set = -155.04853838

                    Orbital Energies (a.u.)
 --------------------------------------------------------------

 Alpha MOs
 -- Occupied --
-19.2439 -10.3270 -10.2809  -1.1252  -0.8518  -0.7283  -0.5780  -0.5572
 -0.5376  -0.4661  -0.4619  -0.4149  -0.3580

                    Cartesian Multipole Moments
 -----------------------------------------------------------------
    Charge (ESU x 10^10)
                 0.0000
    Dipole Moment (Debye)
         X      -1.7605      Y      -0.5839      Z      -0.5029
       Tot       1.9218
    Quadrupole Moments (Debye-Ang)
        XX      -8.4518     XY       0.0605     YY     -18.8576
        XZ       0.9764     YZ       0.7485     ZZ     -19.7404

 Total job time:  10.93s(wall), 56.01s(cpu)
        *  Thank you very much for using Q-Chem.  Have a nice day.  *
