 Q-Chem 5.3 (devel), Q-Chem, Inc., Pleasanton, CA (2020)
 Q-Chem 5.3.0 for Intel X86 EM64T Linux

User input:
--------------------------------------------------------------
$rem
   JOBTYPE  sp
   EXCHANGE   omegaB97X-D
   BASIS   6-311+G(2df,2pd)
   UNRESTRICTED   False
   max_scf_cycles   250
   geom_opt_max_cycles   1500
   basis2 6-31G*
   scf_algorithm rca_diis
   SYM_IGNORE  TRUE
   print_input   true
   geom_opt_dmax   80
   pop_mulliken false
   XC_GRID 000075000302
$end

$molecule
0 1
C       -5.3703704927     0.2955944835     0.0941817367
C       -4.1177337674     1.1227764715     0.3173321733
H       -5.1221948732     -0.7637292721     0.0306289279
H       -5.8673580573     0.5928708773     -0.8305103638
H       -6.0804221739     0.4322627944     0.9128543540
O       -3.1040349322     0.8514190124     -0.6320505920
H       -3.7410970964     0.9735085768     1.3358055947
H       -4.3416293688     2.1837412942     0.2089127673
H       -2.8579692380     -0.0712242379     -0.5668445980
$end
--------------------------------------------------------------

             Standard Nuclear Orientation (Angstroms)
    I     Atom           X                Y                Z
 ----------------------------------------------------------------
    1      C      -5.3703704927     0.2955944835     0.0941817367
    2      C      -4.1177337674     1.1227764715     0.3173321733
    3      H      -5.1221948732    -0.7637292721     0.0306289279
    4      H      -5.8673580573     0.5928708773    -0.8305103638
    5      H      -6.0804221739     0.4322627944     0.9128543540
    6      O      -3.1040349322     0.8514190124    -0.6320505920
    7      H      -3.7410970964     0.9735085768     1.3358055947
    8      H      -4.3416293688     2.1837412942     0.2089127673
    9      H      -2.8579692380    -0.0712242379    -0.5668445980
 ----------------------------------------------------------------

    7    -154.9821723272      7.50E-06 Convergence criterion met
    6    -155.0504837053      5.64E-06 Convergence criterion met
 Total energy in the final basis set = -155.05048371

                    Orbital Energies (a.u.)
 --------------------------------------------------------------

 Alpha MOs
 -- Occupied --
-19.2462 -10.3272 -10.2746  -1.1261  -0.8498  -0.7231  -0.5959  -0.5457
 -0.5233  -0.4697  -0.4589  -0.4115  -0.3625

                    Cartesian Multipole Moments
 -----------------------------------------------------------------
    Charge (ESU x 10^10)
                 0.0000
    Dipole Moment (Debye)
         X      -0.8265      Y      -1.1205      Z       1.0878
       Tot       1.7669
    Quadrupole Moments (Debye-Ang)
        XX     -13.9470     XY       1.4930     YY     -19.9955
        XZ      -3.6534     YZ       1.7584     ZZ     -21.0807

 Total job time:  11.15s(wall), 57.62s(cpu)
        *  Thank you very much for using Q-Chem.  Have a nice day.  *
