 Q-Chem 5.3 (devel), Q-Chem, Inc., Pleasanton, CA (2020)
 Q-Chem 5.3.0 for Intel X86 EM64T Linux

User input:
--------------------------------------------------------------
$rem
   JOBTYPE  sp
   EXCHANGE   omegaB97X-D
   BASIS   6-311+G(2df,2pd)
   UNRESTRICTED   False
   max_scf_cycles   250
   geom_opt_max_cycles   1500
   basis2 6-31G*
   scf_algorithm rca_diis
   SYM_IGNORE  TRUE
   print_input   true
   geom_opt_dmax   80
   pop_mulliken false
   XC_GRID 000075000302
$end

$molecule
0 1
C       -5.4245820716     0.2906318868     0.1799526165
C       -4.1595200937     1.0981566632     -0.0450959382
H       -5.6485541155     -0.3199264689     -0.6946055203
H       -6.2725461959     0.9502184197     0.3705512108
H       -5.3176234799     -0.3719836490     1.0416816823
O       -3.0382530775     0.2894901285     -0.3473649383
H       -3.9538318731     1.7313710332     0.8256256671
H       -4.2812404165     1.7593523982     -0.9027291500
H       -2.5066586763     0.1899095884     0.4422943702
$end
--------------------------------------------------------------

             Standard Nuclear Orientation (Angstroms)
    I     Atom           X                Y                Z
 ----------------------------------------------------------------
    1      C      -5.4245820716     0.2906318868     0.1799526165
    2      C      -4.1595200937     1.0981566632    -0.0450959382
    3      H      -5.6485541155    -0.3199264689    -0.6946055203
    4      H      -6.2725461959     0.9502184197     0.3705512108
    5      H      -5.3176234799    -0.3719836490     1.0416816823
    6      O      -3.0382530775     0.2894901285    -0.3473649383
    7      H      -3.9538318731     1.7313710332     0.8256256671
    8      H      -4.2812404165     1.7593523982    -0.9027291500
    9      H      -2.5066586763     0.1899095884     0.4422943702
 ----------------------------------------------------------------

    6    -154.9808364699      9.47E-05 Convergence criterion met
    6    -155.0495072123      6.07E-06 Convergence criterion met
 Total energy in the final basis set = -155.04950721

                    Orbital Energies (a.u.)
 --------------------------------------------------------------

 Alpha MOs
 -- Occupied --
-19.2460 -10.3272 -10.2697  -1.1259  -0.8485  -0.7156  -0.6076  -0.5461
 -0.5028  -0.4777  -0.4547  -0.4092  -0.3625

                    Cartesian Multipole Moments
 -----------------------------------------------------------------
    Charge (ESU x 10^10)
                 0.0000
    Dipole Moment (Debye)
         X      -0.4041      Y       0.6655      Z       1.5585
       Tot       1.7422
    Quadrupole Moments (Debye-Ang)
        XX     -16.0457     XY      -3.1250     YY     -19.5316
        XZ      -3.5381     YZ       0.1473     ZZ     -19.7267

 Total job time:  10.81s(wall), 55.65s(cpu)
        *  Thank you very much for using Q-Chem.  Have a nice day.  *
