 Q-Chem 5.3 (devel), Q-Chem, Inc., Pleasanton, CA (2020)
 Q-Chem 5.3.0 for Intel X86 EM64T Linux

User input:
--------------------------------------------------------------
$rem
   JOBTYPE  sp
   EXCHANGE   omegaB97X-D
   BASIS   6-311+G(2df,2pd)
   UNRESTRICTED   False
   max_scf_cycles   250
   geom_opt_max_cycles   1500
   basis2 6-31G*
   scf_algorithm rca_diis
   SYM_IGNORE  TRUE
   print_input   true
   geom_opt_dmax   80
   pop_mulliken false
   XC_GRID 000075000302
$end

$molecule
0 1
C       -5.3591084106     0.2682138760     0.1266619227
C       -4.0749626770     1.0224972580     0.4184687744
H       -5.5116675730     -0.5239256192     0.8594904422
H       -5.3242113699     -0.1793974993     -0.8677482682
H       -6.2220409416     0.9369828611     0.1608958708
O       -3.2716638980     1.2050371323     -0.7321563167
H       -3.5078175464     0.5149048269     1.2072149447
H       -4.3000967816     2.0260964465     0.7785155307
H       -3.0312408017     0.3468107176     -1.0810329004
$end
--------------------------------------------------------------

             Standard Nuclear Orientation (Angstroms)
    I     Atom           X                Y                Z
 ----------------------------------------------------------------
    1      C      -5.3591084106     0.2682138760     0.1266619227
    2      C      -4.0749626770     1.0224972580     0.4184687744
    3      H      -5.5116675730    -0.5239256192     0.8594904422
    4      H      -5.3242113699    -0.1793974993    -0.8677482682
    5      H      -6.2220409416     0.9369828611     0.1608958708
    6      O      -3.2716638980     1.2050371323    -0.7321563167
    7      H      -3.5078175464     0.5149048269     1.2072149447
    8      H      -4.3000967816     2.0260964465     0.7785155307
    9      H      -3.0312408017     0.3468107176    -1.0810329004
 ----------------------------------------------------------------

    6    -154.9767554681      9.98E-05 Convergence criterion met
    6    -155.0455693145      5.64E-06 Convergence criterion met
 Total energy in the final basis set = -155.04556931

                    Orbital Energies (a.u.)
 --------------------------------------------------------------

 Alpha MOs
 -- Occupied --
-19.2454 -10.3261 -10.2727  -1.1257  -0.8494  -0.7227  -0.5954  -0.5447
 -0.5243  -0.4719  -0.4566  -0.4080  -0.3612

                    Cartesian Multipole Moments
 -----------------------------------------------------------------
    Charge (ESU x 10^10)
                 0.0000
    Dipole Moment (Debye)
         X      -0.6098      Y      -1.5181      Z       0.6635
       Tot       1.7655
    Quadrupole Moments (Debye-Ang)
        XX     -15.6025     XY       3.3877     YY     -22.1775
        XZ      -2.8755     YZ       2.7036     ZZ     -19.8349

 Total job time:  10.79s(wall), 55.41s(cpu)
        *  Thank you very much for using Q-Chem.  Have a nice day.  *
