 Q-Chem 5.3 (devel), Q-Chem, Inc., Pleasanton, CA (2020)
 Q-Chem 5.3.0 for Intel X86 EM64T Linux

User input:
--------------------------------------------------------------
$rem
   JOBTYPE  sp
   EXCHANGE   omegaB97X-D
   BASIS   6-311+G(2df,2pd)
   UNRESTRICTED   False
   max_scf_cycles   250
   geom_opt_max_cycles   1500
   basis2 6-31G*
   scf_algorithm rca_diis
   SYM_IGNORE  TRUE
   print_input   true
   geom_opt_dmax   80
   pop_mulliken false
   XC_GRID 000075000302
$end

$molecule
0 1
C       -5.3738615610     0.3061293429     0.0685179594
C       -4.1314905760     1.1619542848     0.2334510633
H       -5.1569073810     -0.5676428258     -0.5456888445
H       -6.1729054218     0.8765955124     -0.4074259790
H       -5.7423906746     -0.0392524911     1.0370086164
O       -3.0203482232     0.6614637185     -0.4858678500
H       -3.8846243605     1.2714167978     1.2957595055
H       -4.3070922819     2.1624121933     -0.1612366323
H       -2.8131895198     -0.2158565329     -0.1642078386
$end
--------------------------------------------------------------

             Standard Nuclear Orientation (Angstroms)
    I     Atom           X                Y                Z
 ----------------------------------------------------------------
    1      C      -5.3738615610     0.3061293429     0.0685179594
    2      C      -4.1314905760     1.1619542848     0.2334510633
    3      H      -5.1569073810    -0.5676428258    -0.5456888445
    4      H      -6.1729054218     0.8765955124    -0.4074259790
    5      H      -5.7423906746    -0.0392524911     1.0370086164
    6      O      -3.0203482232     0.6614637185    -0.4858678500
    7      H      -3.8846243605     1.2714167978     1.2957595055
    8      H      -4.3070922819     2.1624121933    -0.1612366323
    9      H      -2.8131895198    -0.2158565329    -0.1642078386
 ----------------------------------------------------------------

    7    -154.9763802520      7.89E-06 Convergence criterion met
    6    -155.0451730701      5.66E-06 Convergence criterion met
 Total energy in the final basis set = -155.04517307

                    Orbital Energies (a.u.)
 --------------------------------------------------------------

 Alpha MOs
 -- Occupied --
-19.2454 -10.3259 -10.2723  -1.1257  -0.8493  -0.7225  -0.5952  -0.5452
 -0.5245  -0.4697  -0.4575  -0.4079  -0.3613

                    Cartesian Multipole Moments
 -----------------------------------------------------------------
    Charge (ESU x 10^10)
                 0.0000
    Dipole Moment (Debye)
         X      -0.9709      Y      -0.8441      Z       1.2009
       Tot       1.7599
    Quadrupole Moments (Debye-Ang)
        XX     -13.3295     XY       0.4863     YY     -19.1668
        XZ      -3.4491     YZ       0.7833     ZZ     -20.9159

 Total job time:  11.09s(wall), 57.32s(cpu)
        *  Thank you very much for using Q-Chem.  Have a nice day.  *
