 Q-Chem 5.3 (devel), Q-Chem, Inc., Pleasanton, CA (2020)
 Q-Chem 5.3.0 for Intel X86 EM64T Linux

User input:
--------------------------------------------------------------
$rem
   JOBTYPE  sp
   EXCHANGE   omegaB97X-D
   BASIS   6-311+G(2df,2pd)
   UNRESTRICTED   False
   max_scf_cycles   250
   geom_opt_max_cycles   1500
   basis2 6-31G*
   scf_algorithm rca_diis
   SYM_IGNORE  TRUE
   print_input   true
   geom_opt_dmax   80
   pop_mulliken false
   XC_GRID 000075000302
$end

$molecule
0 1
C       -5.3268276435     0.3018615919     0.0706306831
C       -4.1256959553     1.2227854049     0.1815672535
H       -5.3506477930     -0.1785900704     -0.9073241817
H       -6.2536616409     0.8612985357     0.2064041037
H       -5.2935754713     -0.4782024246     0.8344833487
O       -2.8983407083     0.5534680232     -0.0378892904
H       -4.1214209169     1.7248523336     1.1559053466
H       -4.1739646526     1.9997568166     -0.5810046586
H       -3.0586752181     -0.3900102109     -0.0524626049
$end
--------------------------------------------------------------

             Standard Nuclear Orientation (Angstroms)
    I     Atom           X                Y                Z
 ----------------------------------------------------------------
    1      C      -5.3268276435     0.3018615919     0.0706306831
    2      C      -4.1256959553     1.2227854049     0.1815672535
    3      H      -5.3506477930    -0.1785900704    -0.9073241817
    4      H      -6.2536616409     0.8612985357     0.2064041037
    5      H      -5.2935754713    -0.4782024246     0.8344833487
    6      O      -2.8983407083     0.5534680232    -0.0378892904
    7      H      -4.1214209169     1.7248523336     1.1559053466
    8      H      -4.1739646526     1.9997568166    -0.5810046586
    9      H      -3.0586752181    -0.3900102109    -0.0524626049
 ----------------------------------------------------------------

    6    -154.9801698781      9.29E-05 Convergence criterion met
    6    -155.0489941863      5.45E-06 Convergence criterion met
 Total energy in the final basis set = -155.04899419

                    Orbital Energies (a.u.)
 --------------------------------------------------------------

 Alpha MOs
 -- Occupied --
-19.2443 -10.3268 -10.2815  -1.1253  -0.8521  -0.7290  -0.5765  -0.5573
 -0.5391  -0.4661  -0.4607  -0.4160  -0.3590

                    Cartesian Multipole Moments
 -----------------------------------------------------------------
    Charge (ESU x 10^10)
                 0.0000
    Dipole Moment (Debye)
         X      -1.7684      Y      -0.7693      Z       0.1847
       Tot       1.9373
    Quadrupole Moments (Debye-Ang)
        XX      -8.3579     XY       0.5625     YY     -18.6561
        XZ      -0.7182     YZ       0.2663     ZZ     -20.1249

 Total job time:  11.02s(wall), 56.49s(cpu)
        *  Thank you very much for using Q-Chem.  Have a nice day.  *
