 Q-Chem 5.3 (devel), Q-Chem, Inc., Pleasanton, CA (2020)
 Q-Chem 5.3.0 for Intel X86 EM64T Linux

User input:
--------------------------------------------------------------
$rem
   JOBTYPE  sp
   EXCHANGE   omegaB97X-D
   BASIS   6-311+G(2df,2pd)
   UNRESTRICTED   False
   max_scf_cycles   250
   geom_opt_max_cycles   1500
   basis2 6-31G*
   scf_algorithm rca_diis
   SYM_IGNORE  TRUE
   print_input   true
   geom_opt_dmax   80
   pop_mulliken false
   XC_GRID 000075000302
$end

$molecule
0 1
C       -5.3361857522     0.2962272166     0.1037095110
C       -4.1252757757     1.2021540816     0.2306680414
H       -5.3044604493     -0.2541702502     -0.8364250807
H       -6.2575104360     0.8798650833     0.1345808933
H       -5.3718385947     -0.4261745581     0.9222087611
O       -2.9009589698     0.4976773904     0.1451766121
H       -4.1757755934     1.7741740967     1.1642991609
H       -4.1047562314     1.9218224678     -0.5873702982
H       -3.0260481974     -0.2743555279     -0.4065376009
$end
--------------------------------------------------------------

             Standard Nuclear Orientation (Angstroms)
    I     Atom           X                Y                Z
 ----------------------------------------------------------------
    1      C      -5.3361857522     0.2962272166     0.1037095110
    2      C      -4.1252757757     1.2021540816     0.2306680414
    3      H      -5.3044604493    -0.2541702502    -0.8364250807
    4      H      -6.2575104360     0.8798650833     0.1345808933
    5      H      -5.3718385947    -0.4261745581     0.9222087611
    6      O      -2.9009589698     0.4976773904     0.1451766121
    7      H      -4.1757755934     1.7741740967     1.1642991609
    8      H      -4.1047562314     1.9218224678    -0.5873702982
    9      H      -3.0260481974    -0.2743555279    -0.4065376009
 ----------------------------------------------------------------

    6    -154.9798947758      9.33E-05 Convergence criterion met
    6    -155.0486966755      5.54E-06 Convergence criterion met
 Total energy in the final basis set = -155.04869668

                    Orbital Energies (a.u.)
 --------------------------------------------------------------

 Alpha MOs
 -- Occupied --
-19.2441 -10.3272 -10.2797  -1.1253  -0.8514  -0.7273  -0.5820  -0.5544
 -0.5355  -0.4664  -0.4621  -0.4140  -0.3582

                    Cartesian Multipole Moments
 -----------------------------------------------------------------
    Charge (ESU x 10^10)
                 0.0000
    Dipole Moment (Debye)
         X      -1.6895      Y      -0.4584      Z      -0.7095
       Tot       1.8889
    Quadrupole Moments (Debye-Ang)
        XX      -8.9345     XY      -0.3143     YY     -18.9605
        XZ       1.4679     YZ       0.8374     ZZ     -19.5548

 Total job time:  10.93s(wall), 56.22s(cpu)
        *  Thank you very much for using Q-Chem.  Have a nice day.  *
