 Q-Chem 5.3 (devel), Q-Chem, Inc., Pleasanton, CA (2020)
 Q-Chem 5.3.0 for Intel X86 EM64T Linux

User input:
--------------------------------------------------------------
$rem
   JOBTYPE  sp
   EXCHANGE   omegaB97X-D
   BASIS   6-311+G(2df,2pd)
   UNRESTRICTED   False
   max_scf_cycles   250
   geom_opt_max_cycles   1500
   basis2 6-31G*
   scf_algorithm rca_diis
   SYM_IGNORE  TRUE
   print_input   true
   geom_opt_dmax   80
   pop_mulliken false
   XC_GRID 000075000302
$end

$molecule
0 1
C       -5.3744622753     0.3094609424     0.0522687189
C       -4.1343272153     1.1750240534     0.1787221024
H       -5.2926022125     -0.3513518019     -0.8105304257
H       -6.2647423267     0.9288622820     -0.0667639878
H       -5.5139894692     -0.3067173310     0.9432978819
O       -2.9815890539     0.5669154799     -0.3725913550
H       -3.9638775871     1.4425201731     1.2279203423
H       -4.2652000203     2.1051884166     -0.3737242111
H       -2.8120198395     -0.2526822144     0.0917109343
$end
--------------------------------------------------------------

             Standard Nuclear Orientation (Angstroms)
    I     Atom           X                Y                Z
 ----------------------------------------------------------------
    1      C      -5.3744622753     0.3094609424     0.0522687189
    2      C      -4.1343272153     1.1750240534     0.1787221024
    3      H      -5.2926022125    -0.3513518019    -0.8105304257
    4      H      -6.2647423267     0.9288622820    -0.0667639878
    5      H      -5.5139894692    -0.3067173310     0.9432978819
    6      O      -2.9815890539     0.5669154799    -0.3725913550
    7      H      -3.9638775871     1.4425201731     1.2279203423
    8      H      -4.2652000203     2.1051884166    -0.3737242111
    9      H      -2.8120198395    -0.2526822144     0.0917109343
 ----------------------------------------------------------------

    7    -154.9796808676      7.67E-06 Convergence criterion met
    6    -155.0480851160      5.67E-06 Convergence criterion met
 Total energy in the final basis set = -155.04808512

                    Orbital Energies (a.u.)
 --------------------------------------------------------------

 Alpha MOs
 -- Occupied --
-19.2459 -10.3265 -10.2727  -1.1260  -0.8493  -0.7224  -0.5960  -0.5450
 -0.5241  -0.4682  -0.4579  -0.4098  -0.3623

                    Cartesian Multipole Moments
 -----------------------------------------------------------------
    Charge (ESU x 10^10)
                 0.0000
    Dipole Moment (Debye)
         X      -1.0642      Y      -0.6354      Z       1.2310
       Tot       1.7469
    Quadrupole Moments (Debye-Ang)
        XX     -12.7663     XY      -0.0985     YY     -18.9884
        XZ      -3.2932     YZ       0.2259     ZZ     -20.5087

 Total job time:  11.16s(wall), 57.54s(cpu)
        *  Thank you very much for using Q-Chem.  Have a nice day.  *
