 Q-Chem 5.3 (devel), Q-Chem, Inc., Pleasanton, CA (2020)
 Q-Chem 5.3.0 for Intel X86 EM64T Linux

User input:
--------------------------------------------------------------
$rem
   JOBTYPE  sp
   EXCHANGE   omegaB97X-D
   BASIS   6-311+G(2df,2pd)
   UNRESTRICTED   False
   max_scf_cycles   250
   geom_opt_max_cycles   1500
   basis2 6-31G*
   scf_algorithm rca_diis
   SYM_IGNORE  TRUE
   print_input   true
   geom_opt_dmax   80
   pop_mulliken false
   XC_GRID 000075000302
$end

$molecule
0 1
C       -5.4844551475     0.2943469045     0.1653057426
C       -4.1459917513     1.0096125775     0.1593325924
H       -5.5849587023     -0.3352386580     -0.7186161836
H       -6.3045220360     1.0139406938     0.1753282787
H       -5.5858150440     -0.3386361151     1.0496897881
O       -3.0478421809     0.1194006474     0.0950047226
H       -4.0611056480     1.6628050581     1.0354365412
H       -4.0599594343     1.6422884828     -0.7237585706
H       -2.3281600556     0.5487004089     -0.3674129113
$end
--------------------------------------------------------------

             Standard Nuclear Orientation (Angstroms)
    I     Atom           X                Y                Z
 ----------------------------------------------------------------
    1      C      -5.4844551475     0.2943469045     0.1653057426
    2      C      -4.1459917513     1.0096125775     0.1593325924
    3      H      -5.5849587023    -0.3352386580    -0.7186161836
    4      H      -6.3045220360     1.0139406938     0.1753282787
    5      H      -5.5858150440    -0.3386361151     1.0496897881
    6      O      -3.0478421809     0.1194006474     0.0950047226
    7      H      -4.0611056480     1.6628050581     1.0354365412
    8      H      -4.0599594343     1.6422884828    -0.7237585706
    9      H      -2.3281600556     0.5487004089    -0.3674129113
 ----------------------------------------------------------------

    6    -154.9792920762      7.38E-05 Convergence criterion met
    6    -155.0484890313      6.22E-06 Convergence criterion met
 Total energy in the final basis set = -155.04848903

                    Orbital Energies (a.u.)
 --------------------------------------------------------------

 Alpha MOs
 -- Occupied --
-19.2451 -10.3275 -10.2712  -1.1255  -0.8495  -0.7099  -0.6097  -0.5557
 -0.4943  -0.4755  -0.4549  -0.4113  -0.3596

                    Cartesian Multipole Moments
 -----------------------------------------------------------------
    Charge (ESU x 10^10)
                 0.0000
    Dipole Moment (Debye)
         X      -0.1371      Y       1.5407      Z      -0.6959
       Tot       1.6961
    Quadrupole Moments (Debye-Ang)
        XX     -16.7135     XY      -4.6595     YY     -19.2933
        XZ       1.0614     YZ      -0.3330     ZZ     -19.7772

 Total job time:  10.70s(wall), 54.94s(cpu)
        *  Thank you very much for using Q-Chem.  Have a nice day.  *
