 Q-Chem 5.3 (devel), Q-Chem, Inc., Pleasanton, CA (2020)
 Q-Chem 5.3.0 for Intel X86 EM64T Linux

User input:
--------------------------------------------------------------
$rem
   JOBTYPE  sp
   EXCHANGE   omegaB97X-D
   BASIS   6-311+G(2df,2pd)
   UNRESTRICTED   False
   max_scf_cycles   250
   geom_opt_max_cycles   1500
   basis2 6-31G*
   scf_algorithm rca_diis
   SYM_IGNORE  TRUE
   print_input   true
   geom_opt_dmax   80
   pop_mulliken false
   XC_GRID 000075000302
$end

$molecule
0 1
C       -5.3554100484     0.2598978045     0.1323616443
C       -4.0610735482     0.9920429960     0.4353160423
H       -5.6484752327     -0.3631678363     0.9771686767
H       -5.2401328677     -0.3765993096     -0.7462781965
H       -6.1651147948     0.9643855367     -0.0704972483
O       -3.3166123471     1.2961595218     -0.7290887382
H       -3.4536069297     0.4126580876     1.1401008547
H       -4.2716485711     1.9524173222     0.9052837819
H       -3.0907356603     0.4794258772     -1.1740568167
$end
--------------------------------------------------------------

             Standard Nuclear Orientation (Angstroms)
    I     Atom           X                Y                Z
 ----------------------------------------------------------------
    1      C      -5.3554100484     0.2598978045     0.1323616443
    2      C      -4.0610735482     0.9920429960     0.4353160423
    3      H      -5.6484752327    -0.3631678363     0.9771686767
    4      H      -5.2401328677    -0.3765993096    -0.7462781965
    5      H      -6.1651147948     0.9643855367    -0.0704972483
    6      O      -3.3166123471     1.2961595218    -0.7290887382
    7      H      -3.4536069297     0.4126580876     1.1401008547
    8      H      -4.2716485711     1.9524173222     0.9052837819
    9      H      -3.0907356603     0.4794258772    -1.1740568167
 ----------------------------------------------------------------

    7    -154.9794345718      7.64E-06 Convergence criterion met
    6    -155.0480446940      5.63E-06 Convergence criterion met
 Total energy in the final basis set = -155.04804469

                    Orbital Energies (a.u.)
 --------------------------------------------------------------

 Alpha MOs
 -- Occupied --
-19.2457 -10.3267 -10.2740  -1.1258  -0.8497  -0.7231  -0.5956  -0.5450
 -0.5237  -0.4722  -0.4575  -0.4097  -0.3617

                    Cartesian Multipole Moments
 -----------------------------------------------------------------
    Charge (ESU x 10^10)
                 0.0000
    Dipole Moment (Debye)
         X      -0.5727      Y      -1.5824      Z       0.5585
       Tot       1.7732
    Quadrupole Moments (Debye-Ang)
        XX     -15.8554     XY       3.8775     YY     -22.7751
        XZ      -2.6837     YZ       2.6855     ZZ     -19.3971

 Total job time:  11.07s(wall), 56.97s(cpu)
        *  Thank you very much for using Q-Chem.  Have a nice day.  *
