 Q-Chem 5.3 (devel), Q-Chem, Inc., Pleasanton, CA (2020)
 Q-Chem 5.3.0 for Intel X86 EM64T Linux

User input:
--------------------------------------------------------------
$rem
   JOBTYPE  sp
   EXCHANGE   omegaB97X-D
   BASIS   6-311+G(2df,2pd)
   UNRESTRICTED   False
   max_scf_cycles   250
   geom_opt_max_cycles   1500
   basis2 6-31G*
   scf_algorithm rca_diis
   SYM_IGNORE  TRUE
   print_input   true
   geom_opt_dmax   80
   pop_mulliken false
   XC_GRID 000075000302
$end

$molecule
0 1
C       -5.3493639385     0.2467064692     0.1387230378
C       -4.0385381039     0.9437857006     0.4532720817
H       -5.8423578487     -0.0720034866     1.0569702188
H       -5.1774855761     -0.6305889219     -0.4867655710
H       -6.0270406811     0.9125511641     -0.4002403620
O       -3.3839057553     1.4302784584     -0.7031573882
H       -3.3783101805     0.2739674636     1.0161813240
H       -4.2167659961     1.8194404561     1.0769658612
H       -3.1890419198     0.6930826966     -1.2816392023
$end
--------------------------------------------------------------

             Standard Nuclear Orientation (Angstroms)
    I     Atom           X                Y                Z
 ----------------------------------------------------------------
    1      C      -5.3493639385     0.2467064692     0.1387230378
    2      C      -4.0385381039     0.9437857006     0.4532720817
    3      H      -5.8423578487    -0.0720034866     1.0569702188
    4      H      -5.1774855761    -0.6305889219    -0.4867655710
    5      H      -6.0270406811     0.9125511641    -0.4002403620
    6      O      -3.3839057553     1.4302784584    -0.7031573882
    7      H      -3.3783101805     0.2739674636     1.0161813240
    8      H      -4.2167659961     1.8194404561     1.0769658612
    9      H      -3.1890419198     0.6930826966    -1.2816392023
 ----------------------------------------------------------------

    7    -154.9826398786      7.46E-06 Convergence criterion met
    6    -155.0508813351      5.64E-06 Convergence criterion met
 Total energy in the final basis set = -155.05088134

                    Orbital Energies (a.u.)
 --------------------------------------------------------------

 Alpha MOs
 -- Occupied --
-19.2462 -10.3273 -10.2744  -1.1261  -0.8498  -0.7230  -0.5962  -0.5456
 -0.5228  -0.4696  -0.4590  -0.4114  -0.3627

                    Cartesian Multipole Moments
 -----------------------------------------------------------------
    Charge (ESU x 10^10)
                 0.0000
    Dipole Moment (Debye)
         X      -0.5203      Y      -1.6410      Z       0.3604
       Tot       1.7588
    Quadrupole Moments (Debye-Ang)
        XX     -16.2128     XY       4.4181     YY     -23.6928
        XZ      -2.1056     YZ       2.4109     ZZ     -18.6661

 Total job time:  11.09s(wall), 57.00s(cpu)
        *  Thank you very much for using Q-Chem.  Have a nice day.  *
