 Q-Chem 5.3 (devel), Q-Chem, Inc., Pleasanton, CA (2020)
 Q-Chem 5.3.0 for Intel X86 EM64T Linux

User input:
--------------------------------------------------------------
$rem
   JOBTYPE  sp
   EXCHANGE   omegaB97X-D
   BASIS   6-311+G(2df,2pd)
   UNRESTRICTED   False
   max_scf_cycles   250
   geom_opt_max_cycles   1500
   basis2 6-31G*
   scf_algorithm rca_diis
   SYM_IGNORE  TRUE
   print_input   true
   geom_opt_dmax   80
   pop_mulliken false
   XC_GRID 000075000302
$end

$molecule
0 1
C       -5.3360260910     0.2189120929     0.1429693496
C       -3.9898353158     0.8430818425     0.4612576541
H       -6.0900262436     0.5533294340     0.8553216000
H       -5.2746369968     -0.8695668052     0.1862179570
H       -5.6674216317     0.4942984499     -0.8607317123
O       -3.5109865315     1.6756283773     -0.5780295744
H       -3.2568427861     0.0634074577     0.6984369145
H       -4.0698095017     1.4871064053     1.3366814686
H       -3.4072249016     1.1510227455     -1.3718136571
$end
--------------------------------------------------------------

             Standard Nuclear Orientation (Angstroms)
    I     Atom           X                Y                Z
 ----------------------------------------------------------------
    1      C      -5.3360260910     0.2189120929     0.1429693496
    2      C      -3.9898353158     0.8430818425     0.4612576541
    3      H      -6.0900262436     0.5533294340     0.8553216000
    4      H      -5.2746369968    -0.8695668052     0.1862179570
    5      H      -5.6674216317     0.4942984499    -0.8607317123
    6      O      -3.5109865315     1.6756283773    -0.5780295744
    7      H      -3.2568427861     0.0634074577     0.6984369145
    8      H      -4.0698095017     1.4871064053     1.3366814686
    9      H      -3.4072249016     1.1510227455    -1.3718136571
 ----------------------------------------------------------------

    6    -154.9763154677      1.00E-04 Convergence criterion met
    6    -155.0451312332      5.66E-06 Convergence criterion met
 Total energy in the final basis set = -155.04513123

                    Orbital Energies (a.u.)
 --------------------------------------------------------------

 Alpha MOs
 -- Occupied --
-19.2453 -10.3259 -10.2723  -1.1256  -0.8493  -0.7225  -0.5953  -0.5452
 -0.5239  -0.4705  -0.4572  -0.4078  -0.3611

                    Cartesian Multipole Moments
 -----------------------------------------------------------------
    Charge (ESU x 10^10)
                 0.0000
    Dipole Moment (Debye)
         X      -0.4759      Y      -1.6904      Z      -0.1143
       Tot       1.7599
    Quadrupole Moments (Debye-Ang)
        XX     -16.8334     XY       5.0532     YY     -25.0434
        XZ      -0.2419     YZ       1.2099     ZZ     -17.3144

 Total job time:  11.03s(wall), 56.95s(cpu)
        *  Thank you very much for using Q-Chem.  Have a nice day.  *
