 Q-Chem 5.3 (devel), Q-Chem, Inc., Pleasanton, CA (2020)
 Q-Chem 5.3.0 for Intel X86 EM64T Linux

User input:
--------------------------------------------------------------
$rem
   JOBTYPE  sp
   EXCHANGE   omegaB97X-D
   BASIS   6-311+G(2df,2pd)
   UNRESTRICTED   False
   max_scf_cycles   250
   geom_opt_max_cycles   1500
   basis2 6-31G*
   scf_algorithm rca_diis
   SYM_IGNORE  TRUE
   print_input   true
   geom_opt_dmax   80
   pop_mulliken false
   XC_GRID 000075000302
$end

$molecule
0 1
C       -5.3572960054     0.2641115721     0.1296516337
C       -4.0681473722     1.0074742509     0.4273640014
H       -5.5799900923     -0.4476305893     0.9244015039
H       -5.2782016216     -0.2798558022     -0.8128285776
H       -6.1976726011     0.9567081656     0.0450726317
O       -3.2940972157     1.2506748783     -0.7320529401
H       -3.4803674605     0.4629070392     1.1752848018
H       -4.2867237926     1.9908359849     0.8430013571
H       -3.0603138384     0.4119945004     -1.1295844118
$end
--------------------------------------------------------------

             Standard Nuclear Orientation (Angstroms)
    I     Atom           X                Y                Z
 ----------------------------------------------------------------
    1      C      -5.3572960054     0.2641115721     0.1296516337
    2      C      -4.0681473722     1.0074742509     0.4273640014
    3      H      -5.5799900923    -0.4476305893     0.9244015039
    4      H      -5.2782016216    -0.2798558022    -0.8128285776
    5      H      -6.1976726011     0.9567081656     0.0450726317
    6      O      -3.2940972157     1.2506748783    -0.7320529401
    7      H      -3.4803674605     0.4629070392     1.1752848018
    8      H      -4.2867237926     1.9908359849     0.8430013571
    9      H      -3.0603138384     0.4119945004    -1.1295844118
 ----------------------------------------------------------------

    6    -154.9778604260      9.97E-05 Convergence criterion met
    6    -155.0466040072      5.63E-06 Convergence criterion met
 Total energy in the final basis set = -155.04660401

                    Orbital Energies (a.u.)
 --------------------------------------------------------------

 Alpha MOs
 -- Occupied --
-19.2455 -10.3264 -10.2734  -1.1257  -0.8496  -0.7230  -0.5954  -0.5448
 -0.5241  -0.4723  -0.4570  -0.4087  -0.3614

                    Cartesian Multipole Moments
 -----------------------------------------------------------------
    Charge (ESU x 10^10)
                 0.0000
    Dipole Moment (Debye)
         X      -0.5912      Y      -1.5531      Z       0.6126
       Tot       1.7712
    Quadrupole Moments (Debye-Ang)
        XX     -15.7343     XY       3.6413     YY     -22.4722
        XZ      -2.7917     YZ       2.7113     ZZ     -19.6217

 Total job time:  10.90s(wall), 56.07s(cpu)
        *  Thank you very much for using Q-Chem.  Have a nice day.  *
