 Q-Chem 5.3 (devel), Q-Chem, Inc., Pleasanton, CA (2020)
 Q-Chem 5.3.0 for Intel X86 EM64T Linux

User input:
--------------------------------------------------------------
$rem
   JOBTYPE  sp
   EXCHANGE   omegaB97X-D
   BASIS   6-311+G(2df,2pd)
   UNRESTRICTED   False
   max_scf_cycles   250
   geom_opt_max_cycles   1500
   basis2 6-31G*
   scf_algorithm rca_diis
   SYM_IGNORE  TRUE
   print_input   true
   geom_opt_dmax   80
   pop_mulliken false
   XC_GRID 000075000302
$end

$molecule
0 1
C       -5.3742181048     0.3103481209     0.0413865662
C       -4.1339025657     1.1791112277     0.1413513207
H       -5.4195858501     -0.1801254458     -0.9308142181
H       -6.2756249957     0.9113463426     0.1705845892
H       -5.3746688394     -0.4613426014     0.8144128901
O       -2.9612194866     0.5137219886     -0.2883222654
H       -4.0124244111     1.5503775959     1.1654746230
H       -4.2291892679     2.0493336490     -0.5076199765
H       -2.8219764785     -0.2555508776     0.2638564709
$end
--------------------------------------------------------------

             Standard Nuclear Orientation (Angstroms)
    I     Atom           X                Y                Z
 ----------------------------------------------------------------
    1      C      -5.3742181048     0.3103481209     0.0413865662
    2      C      -4.1339025657     1.1791112277     0.1413513207
    3      H      -5.4195858501    -0.1801254458    -0.9308142181
    4      H      -6.2756249957     0.9113463426     0.1705845892
    5      H      -5.3746688394    -0.4613426014     0.8144128901
    6      O      -2.9612194866     0.5137219886    -0.2883222654
    7      H      -4.0124244111     1.5503775959     1.1654746230
    8      H      -4.2291892679     2.0493336490    -0.5076199765
    9      H      -2.8219764785    -0.2555508776     0.2638564709
 ----------------------------------------------------------------

    7    -154.9823204840      7.50E-06 Convergence criterion met
    6    -155.0505457362      5.66E-06 Convergence criterion met
 Total energy in the final basis set = -155.05054574

                    Orbital Energies (a.u.)
 --------------------------------------------------------------

 Alpha MOs
 -- Occupied --
-19.2462 -10.3271 -10.2739  -1.1261  -0.8496  -0.7228  -0.5963  -0.5451
 -0.5237  -0.4689  -0.4582  -0.4117  -0.3627

                    Cartesian Multipole Moments
 -----------------------------------------------------------------
    Charge (ESU x 10^10)
                 0.0000
    Dipole Moment (Debye)
         X      -1.1387      Y      -0.4864      Z       1.2428
       Tot       1.7544
    Quadrupole Moments (Debye-Ang)
        XX     -12.2893     XY      -0.4722     YY     -18.9459
        XZ      -3.2690     YZ      -0.1335     ZZ     -20.1467

 Total job time:  11.11s(wall), 57.30s(cpu)
        *  Thank you very much for using Q-Chem.  Have a nice day.  *
