 Q-Chem 5.3 (devel), Q-Chem, Inc., Pleasanton, CA (2020)
 Q-Chem 5.3.0 for Intel X86 EM64T Linux

User input:
--------------------------------------------------------------
$rem
   JOBTYPE  sp
   EXCHANGE   omegaB97X-D
   BASIS   6-311+G(2df,2pd)
   UNRESTRICTED   False
   max_scf_cycles   250
   geom_opt_max_cycles   1500
   basis2 6-31G*
   scf_algorithm rca_diis
   SYM_IGNORE  TRUE
   print_input   true
   geom_opt_dmax   80
   pop_mulliken false
   XC_GRID 000075000302
$end

$molecule
0 1
C       -5.3383255069     0.2235957243     0.1430668986
C       -3.9981146557     0.8598986805     0.4625639200
H       -6.0661766397     0.4554904786     0.9204049643
H       -5.2410082163     -0.8606250990     0.0694467541
H       -5.7274249331     0.5886565893     -0.8100378559
O       -3.4909474822     1.6377385150     -0.6052818012
H       -3.2739569556     0.0914919922     0.7567933937
H       -4.0972195941     1.5475246840     1.3021346754
H       -3.3696360163     1.0734484350     -1.3687809489
$end
--------------------------------------------------------------

             Standard Nuclear Orientation (Angstroms)
    I     Atom           X                Y                Z
 ----------------------------------------------------------------
    1      C      -5.3383255069     0.2235957243     0.1430668986
    2      C      -3.9981146557     0.8598986805     0.4625639200
    3      H      -6.0661766397     0.4554904786     0.9204049643
    4      H      -5.2410082163    -0.8606250990     0.0694467541
    5      H      -5.7274249331     0.5886565893    -0.8100378559
    6      O      -3.4909474822     1.6377385150    -0.6052818012
    7      H      -3.2739569556     0.0914919922     0.7567933937
    8      H      -4.0972195941     1.5475246840     1.3021346754
    9      H      -3.3696360163     1.0734484350    -1.3687809489
 ----------------------------------------------------------------

    7    -154.9768084191      7.86E-06 Convergence criterion met
    6    -155.0455289978      5.67E-06 Convergence criterion met
 Total energy in the final basis set = -155.04552900

                    Orbital Energies (a.u.)
 --------------------------------------------------------------

 Alpha MOs
 -- Occupied --
-19.2454 -10.3260 -10.2721  -1.1257  -0.8492  -0.7223  -0.5955  -0.5454
 -0.5237  -0.4696  -0.4575  -0.4079  -0.3614

                    Cartesian Multipole Moments
 -----------------------------------------------------------------
    Charge (ESU x 10^10)
                -0.0000
    Dipole Moment (Debye)
         X      -0.4781      Y      -1.6853      Z      -0.0422
       Tot       1.7523
    Quadrupole Moments (Debye-Ang)
        XX     -16.7612     XY       4.9394     YY     -24.8892
        XZ      -0.5422     YZ       1.4563     ZZ     -17.4918

 Total job time:  11.08s(wall), 57.14s(cpu)
        *  Thank you very much for using Q-Chem.  Have a nice day.  *
