 Q-Chem 5.3 (devel), Q-Chem, Inc., Pleasanton, CA (2020)
 Q-Chem 5.3.0 for Intel X86 EM64T Linux

User input:
--------------------------------------------------------------
$rem
   JOBTYPE  sp
   EXCHANGE   omegaB97X-D
   BASIS   6-311+G(2df,2pd)
   UNRESTRICTED   False
   max_scf_cycles   250
   geom_opt_max_cycles   1500
   basis2 6-31G*
   scf_algorithm rca_diis
   SYM_IGNORE  TRUE
   print_input   true
   geom_opt_dmax   80
   pop_mulliken false
   XC_GRID 000075000302
$end

$molecule
0 1
C       -5.3933885441     0.2898624707     0.1849250378
C       -4.1577119672     1.1376969919     -0.0546682556
H       -5.6010009864     -0.3362928624     -0.6826137160
H       -6.2622965563     0.9220621762     0.3739958535
H       -5.2594801847     -0.3604602205     1.0522343368
O       -3.0111718146     0.3647238058     -0.3555103506
H       -3.9691630806     1.7858365196     0.8089223109
H       -4.3063037552     1.7861386000     -0.9177872070
H       -2.6422931108     0.0276525187     0.4608119902
$end
--------------------------------------------------------------

             Standard Nuclear Orientation (Angstroms)
    I     Atom           X                Y                Z
 ----------------------------------------------------------------
    1      C      -5.3933885441     0.2898624707     0.1849250378
    2      C      -4.1577119672     1.1376969919    -0.0546682556
    3      H      -5.6010009864    -0.3362928624    -0.6826137160
    4      H      -6.2622965563     0.9220621762     0.3739958535
    5      H      -5.2594801847    -0.3604602205     1.0522343368
    6      O      -3.0111718146     0.3647238058    -0.3555103506
    7      H      -3.9691630806     1.7858365196     0.8089223109
    8      H      -4.3063037552     1.7861386000    -0.9177872070
    9      H      -2.6422931108     0.0276525187     0.4608119902
 ----------------------------------------------------------------

    7    -154.9821369078      7.56E-06 Convergence criterion met
    6    -155.0504601109      5.85E-06 Convergence criterion met
 Total energy in the final basis set = -155.05046011

                    Orbital Energies (a.u.)
 --------------------------------------------------------------

 Alpha MOs
 -- Occupied --
-19.2463 -10.3273 -10.2714  -1.1261  -0.8489  -0.7192  -0.6028  -0.5449
 -0.5127  -0.4738  -0.4563  -0.4097  -0.3632

                    Cartesian Multipole Moments
 -----------------------------------------------------------------
    Charge (ESU x 10^10)
                 0.0000
    Dipole Moment (Debye)
         X      -0.7138      Y       0.2714      Z       1.5608
       Tot       1.7375
    Quadrupole Moments (Debye-Ang)
        XX     -14.5177     XY      -2.3400     YY     -19.4255
        XZ      -3.6070     YZ      -0.1148     ZZ     -19.6887

 Total job time:  11.01s(wall), 56.72s(cpu)
        *  Thank you very much for using Q-Chem.  Have a nice day.  *
