 Q-Chem 5.3 (devel), Q-Chem, Inc., Pleasanton, CA (2020)
 Q-Chem 5.3.0 for Intel X86 EM64T Linux

User input:
--------------------------------------------------------------
$rem
   JOBTYPE  sp
   EXCHANGE   omegaB97X-D
   BASIS   6-311+G(2df,2pd)
   UNRESTRICTED   False
   max_scf_cycles   250
   geom_opt_max_cycles   1500
   basis2 6-31G*
   scf_algorithm rca_diis
   SYM_IGNORE  TRUE
   print_input   true
   geom_opt_dmax   80
   pop_mulliken false
   XC_GRID 000075000302
$end

$molecule
0 1
C       -5.4271319583     0.2926691915     0.1490154553
C       -4.1356388209     1.0847297620     0.2373922230
H       -5.4288612849     -0.3369668239     -0.7405644536
H       -6.2865945392     0.9631935651     0.1026850015
H       -5.5526040439     -0.3498646967     1.0233628862
O       -2.9854844874     0.2603730535     0.2487438991
H       -4.1502990216     1.7370640739     1.1181130757
H       -4.0255028538     1.7260570541     -0.6367357631
H       -2.6106929897     0.2399648204     -0.6317023241
$end
--------------------------------------------------------------

             Standard Nuclear Orientation (Angstroms)
    I     Atom           X                Y                Z
 ----------------------------------------------------------------
    1      C      -5.4271319583     0.2926691915     0.1490154553
    2      C      -4.1356388209     1.0847297620     0.2373922230
    3      H      -5.4288612849    -0.3369668239    -0.7405644536
    4      H      -6.2865945392     0.9631935651     0.1026850015
    5      H      -5.5526040439    -0.3498646967     1.0233628862
    6      O      -2.9854844874     0.2603730535     0.2487438991
    7      H      -4.1502990216     1.7370640739     1.1181130757
    8      H      -4.0255028538     1.7260570541    -0.6367357631
    9      H      -2.6106929897     0.2399648204    -0.6317023241
 ----------------------------------------------------------------

    6    -154.9792602620      9.26E-05 Convergence criterion met
    6    -155.0481405940      6.12E-06 Convergence criterion met
 Total energy in the final basis set = -155.04814059

                    Orbital Energies (a.u.)
 --------------------------------------------------------------

 Alpha MOs
 -- Occupied --
-19.2453 -10.3280 -10.2700  -1.1260  -0.8485  -0.7152  -0.6068  -0.5503
 -0.5030  -0.4777  -0.4563  -0.4048  -0.3631

                    Cartesian Multipole Moments
 -----------------------------------------------------------------
    Charge (ESU x 10^10)
                 0.0000
    Dipole Moment (Debye)
         X      -0.6964      Y       0.8122      Z      -1.4032
       Tot       1.7645
    Quadrupole Moments (Debye-Ang)
        XX     -14.7102     XY      -3.4735     YY     -19.5193
        XZ       2.7982     YZ       0.0556     ZZ     -18.9178

 Total job time:  10.79s(wall), 55.30s(cpu)
        *  Thank you very much for using Q-Chem.  Have a nice day.  *
