 Q-Chem 5.3 (devel), Q-Chem, Inc., Pleasanton, CA (2020)
 Q-Chem 5.3.0 for Intel X86 EM64T Linux

User input:
--------------------------------------------------------------
$rem
   JOBTYPE  sp
   EXCHANGE   omegaB97X-D
   BASIS   6-311+G(2df,2pd)
   UNRESTRICTED   False
   max_scf_cycles   250
   geom_opt_max_cycles   1500
   basis2 6-31G*
   scf_algorithm rca_diis
   SYM_IGNORE  TRUE
   print_input   true
   geom_opt_dmax   80
   pop_mulliken false
   XC_GRID 000075000302
$end

$molecule
0 1
C       -5.3514386199     0.2511834360     0.1369052029
C       -4.0462444274     0.9601487800     0.4482911134
H       -5.7808440952     -0.1741015785     1.0438453945
H       -5.1895707889     -0.5533143759     -0.5821270985
H       -6.0788084595     0.9423888843     -0.2946554720
O       -3.3615900249     1.3861020313     -0.7146190341
H       -3.4024969667     0.3180371945     1.0604235459
H       -4.2366083137     1.8665868982     1.0224530171
H       -3.1552083038     0.6201887301     -1.2502066691
$end
--------------------------------------------------------------

             Standard Nuclear Orientation (Angstroms)
    I     Atom           X                Y                Z
 ----------------------------------------------------------------
    1      C      -5.3514386199     0.2511834360     0.1369052029
    2      C      -4.0462444274     0.9601487800     0.4482911134
    3      H      -5.7808440952    -0.1741015785     1.0438453945
    4      H      -5.1895707889    -0.5533143759    -0.5821270985
    5      H      -6.0788084595     0.9423888843    -0.2946554720
    6      O      -3.3615900249     1.3861020313    -0.7146190341
    7      H      -3.4024969667     0.3180371945     1.0604235459
    8      H      -4.2366083137     1.8665868982     1.0224530171
    9      H      -3.1552083038     0.6201887301    -1.2502066691
 ----------------------------------------------------------------

    7    -154.9822027664      7.48E-06 Convergence criterion met
    6    -155.0505257464      5.63E-06 Convergence criterion met
 Total energy in the final basis set = -155.05052575

                    Orbital Energies (a.u.)
 --------------------------------------------------------------

 Alpha MOs
 -- Occupied --
-19.2461 -10.3273 -10.2745  -1.1260  -0.8498  -0.7231  -0.5960  -0.5455
 -0.5230  -0.4707  -0.4586  -0.4112  -0.3625

                    Cartesian Multipole Moments
 -----------------------------------------------------------------
    Charge (ESU x 10^10)
                 0.0000
    Dipole Moment (Debye)
         X      -0.5365      Y      -1.6256      Z       0.4332
       Tot       1.7658
    Quadrupole Moments (Debye-Ang)
        XX     -16.0925     XY       4.2685     YY     -23.3912
        XZ      -2.3453     YZ       2.5334     ZZ     -18.9170

 Total job time:  11.17s(wall), 57.61s(cpu)
        *  Thank you very much for using Q-Chem.  Have a nice day.  *
