 Q-Chem 5.3 (devel), Q-Chem, Inc., Pleasanton, CA (2020)
 Q-Chem 5.3.0 for Intel X86 EM64T Linux

User input:
--------------------------------------------------------------
$rem
   JOBTYPE  sp
   EXCHANGE   omegaB97X-D
   BASIS   6-311+G(2df,2pd)
   UNRESTRICTED   False
   max_scf_cycles   250
   geom_opt_max_cycles   1500
   basis2 6-31G*
   scf_algorithm rca_diis
   SYM_IGNORE  TRUE
   print_input   true
   geom_opt_dmax   80
   pop_mulliken false
   XC_GRID 000075000302
$end

$molecule
0 1
C       -5.3249077289     0.3002833896     0.0788272304
C       -4.1250452440     1.2222041038     0.1950904587
H       -5.3311567423     -0.1979954130     -0.8904385234
H       -6.2534929913     0.8627950978     0.1871571114
H       -5.3066219435     -0.4656726986     0.8573215288
O       -2.8945608594     0.5480760107     0.0106797009
H       -4.1382479233     1.7420425867     1.1599831146
H       -4.1583719781     1.9851026044     -0.5823447923
H       -3.0704045890     -0.3796156813     -0.1459658291
$end
--------------------------------------------------------------

             Standard Nuclear Orientation (Angstroms)
    I     Atom           X                Y                Z
 ----------------------------------------------------------------
    1      C      -5.3249077289     0.3002833896     0.0788272304
    2      C      -4.1250452440     1.2222041038     0.1950904587
    3      H      -5.3311567423    -0.1979954130    -0.8904385234
    4      H      -6.2534929913     0.8627950978     0.1871571114
    5      H      -5.3066219435    -0.4656726986     0.8573215288
    6      O      -2.8945608594     0.5480760107     0.0106797009
    7      H      -4.1382479233     1.7420425867     1.1599831146
    8      H      -4.1583719781     1.9851026044    -0.5823447923
    9      H      -3.0704045890    -0.3796156813    -0.1459658291
 ----------------------------------------------------------------

    6    -154.9797532102      9.18E-05 Convergence criterion met
    6    -155.0486521709      5.45E-06 Convergence criterion met
 Total energy in the final basis set = -155.04865217

                    Orbital Energies (a.u.)
 --------------------------------------------------------------

 Alpha MOs
 -- Occupied --
-19.2440 -10.3268 -10.2819  -1.1252  -0.8522  -0.7291  -0.5742  -0.5599
 -0.5393  -0.4661  -0.4610  -0.4159  -0.3584

                    Cartesian Multipole Moments
 -----------------------------------------------------------------
    Charge (ESU x 10^10)
                 0.0000
    Dipole Moment (Debye)
         X      -1.8009      Y      -0.7435      Z      -0.0510
       Tot       1.9490
    Quadrupole Moments (Debye-Ang)
        XX      -8.1569     XY       0.5163     YY     -18.7010
        XZ      -0.1317     YZ       0.4468     ZZ     -20.0362

 Total job time:  10.96s(wall), 56.36s(cpu)
        *  Thank you very much for using Q-Chem.  Have a nice day.  *
