 Q-Chem 5.3 (devel), Q-Chem, Inc., Pleasanton, CA (2020)
 Q-Chem 5.3.0 for Intel X86 EM64T Linux

User input:
--------------------------------------------------------------
$rem
   JOBTYPE  sp
   EXCHANGE   omegaB97X-D
   BASIS   6-311+G(2df,2pd)
   UNRESTRICTED   False
   max_scf_cycles   250
   geom_opt_max_cycles   1500
   basis2 6-31G*
   scf_algorithm rca_diis
   SYM_IGNORE  TRUE
   print_input   true
   geom_opt_dmax   80
   pop_mulliken false
   XC_GRID 000075000302
$end

$molecule
0 1
C       -5.3534558026     0.2555844780     0.1347823195
C       -4.0537645204     0.9762514018     0.4422992788
H       -5.7158358159     -0.2715941448     1.0171429841
H       -5.2104898727     -0.4682118319     -0.6690242612
H       -6.1251802902     0.9596700508     -0.1842494861
O       -3.3391345999     1.3413490050     -0.7232716762
H       -3.4276223878     0.3643168443     1.1017735569
H       -4.2549238686     1.9109583515     0.9651646513
H       -3.1224028418     0.5488958453     -1.2143073668
$end
--------------------------------------------------------------

             Standard Nuclear Orientation (Angstroms)
    I     Atom           X                Y                Z
 ----------------------------------------------------------------
    1      C      -5.3534558026     0.2555844780     0.1347823195
    2      C      -4.0537645204     0.9762514018     0.4422992788
    3      H      -5.7158358159    -0.2715941448     1.0171429841
    4      H      -5.2104898727    -0.4682118319    -0.6690242612
    5      H      -6.1251802902     0.9596700508    -0.1842494861
    6      O      -3.3391345999     1.3413490050    -0.7232716762
    7      H      -3.4276223878     0.3643168443     1.1017735569
    8      H      -4.2549238686     1.9109583515     0.9651646513
    9      H      -3.1224028418     0.5488958453    -1.2143073668
 ----------------------------------------------------------------

    7    -154.9810240301      7.54E-06 Convergence criterion met
    6    -155.0494792775      5.63E-06 Convergence criterion met
 Total energy in the final basis set = -155.04947928

                    Orbital Energies (a.u.)
 --------------------------------------------------------------

 Alpha MOs
 -- Occupied --
-19.2459 -10.3271 -10.2744  -1.1259  -0.8498  -0.7232  -0.5958  -0.5453
 -0.5233  -0.4717  -0.4581  -0.4106  -0.3621

                    Cartesian Multipole Moments
 -----------------------------------------------------------------
    Charge (ESU x 10^10)
                 0.0000
    Dipole Moment (Debye)
         X      -0.5542      Y      -1.6063      Z       0.4993
       Tot       1.7711
    Quadrupole Moments (Debye-Ang)
        XX     -15.9734     XY       4.0876     YY     -23.0832
        XZ      -2.5378     YZ       2.6259     ZZ     -19.1616

 Total job time:  11.16s(wall), 57.57s(cpu)
        *  Thank you very much for using Q-Chem.  Have a nice day.  *
