 Q-Chem 5.3 (devel), Q-Chem, Inc., Pleasanton, CA (2020)
 Q-Chem 5.3.0 for Intel X86 EM64T Linux

User input:
--------------------------------------------------------------
$rem
   JOBTYPE  sp
   EXCHANGE   omegaB97X-D
   BASIS   6-311+G(2df,2pd)
   UNRESTRICTED   False
   max_scf_cycles   250
   geom_opt_max_cycles   1500
   basis2 6-31G*
   scf_algorithm rca_diis
   SYM_IGNORE  TRUE
   print_input   true
   geom_opt_dmax   80
   pop_mulliken false
   XC_GRID 000075000302
$end

$molecule
0 1
C       -5.4123393197     0.2926236585     0.1442147371
C       -4.1336772730     1.1037880009     0.2450150570
H       -5.3993960002     -0.3312210727     -0.7493439564
H       -6.2817214367     0.9501890831     0.0972272768
H       -5.5328486480     -0.3573761406     1.0137285290
O       -2.9710835512     0.2970894984     0.2577114525
H       -4.1633065903     1.7501339194     1.1297654476
H       -4.0284847214     1.7523450455     -0.6243747576
H       -2.6799524595     0.1596480075     -0.6436337858
$end
--------------------------------------------------------------

             Standard Nuclear Orientation (Angstroms)
    I     Atom           X                Y                Z
 ----------------------------------------------------------------
    1      C      -5.4123393197     0.2926236585     0.1442147371
    2      C      -4.1336772730     1.1037880009     0.2450150570
    3      H      -5.3993960002    -0.3312210727    -0.7493439564
    4      H      -6.2817214367     0.9501890831     0.0972272768
    5      H      -5.5328486480    -0.3573761406     1.0137285290
    6      O      -2.9710835512     0.2970894984     0.2577114525
    7      H      -4.1633065903     1.7501339194     1.1297654476
    8      H      -4.0284847214     1.7523450455    -0.6243747576
    9      H      -2.6799524595     0.1596480075    -0.6436337858
 ----------------------------------------------------------------

    6    -154.9797071604      9.53E-05 Convergence criterion met
    6    -155.0484306137      6.03E-06 Convergence criterion met
 Total energy in the final basis set = -155.04843061

                    Orbital Energies (a.u.)
 --------------------------------------------------------------

 Alpha MOs
 -- Occupied --
-19.2453 -10.3280 -10.2707  -1.1260  -0.8487  -0.7168  -0.6045  -0.5497
 -0.5076  -0.4761  -0.4571  -0.4053  -0.3627

                    Cartesian Multipole Moments
 -----------------------------------------------------------------
    Charge (ESU x 10^10)
                 0.0000
    Dipole Moment (Debye)
         X      -0.8484      Y       0.6204      Z      -1.4172
       Tot       1.7644
    Quadrupole Moments (Debye-Ang)
        XX     -13.9738     XY      -3.0892     YY     -19.5028
        XZ       2.8893     YZ       0.2466     ZZ     -18.8587

 Total job time:  10.78s(wall), 55.48s(cpu)
        *  Thank you very much for using Q-Chem.  Have a nice day.  *
