 Q-Chem 5.3 (devel), Q-Chem, Inc., Pleasanton, CA (2020)
 Q-Chem 5.3.0 for Intel X86 EM64T Linux

User input:
--------------------------------------------------------------
$rem
   JOBTYPE  sp
   EXCHANGE   omegaB97X-D
   BASIS   6-311+G(2df,2pd)
   UNRESTRICTED   False
   max_scf_cycles   250
   geom_opt_max_cycles   1500
   basis2 6-31G*
   scf_algorithm rca_diis
   SYM_IGNORE  TRUE
   print_input   true
   geom_opt_dmax   80
   pop_mulliken false
   XC_GRID 000075000302
$end

$molecule
0 1
C       -5.3605114130     0.3086640790     0.0417676459
C       -4.1311867600     1.1939845187     0.1317317550
H       -5.4604084505     -0.1053128365     -0.9614474916
H       -6.2616951627     0.8778185849     0.2749121766
H       -5.2978892317     -0.5208288332     0.7496493045
O       -2.9385221398     0.5142522378     -0.2118711614
H       -4.0504606226     1.6301870507     1.1340464952
H       -4.2087855286     2.0206327227     -0.5740738420
H       -2.8933506909     -0.3021775240     0.2855951178
$end
--------------------------------------------------------------

             Standard Nuclear Orientation (Angstroms)
    I     Atom           X                Y                Z
 ----------------------------------------------------------------
    1      C      -5.3605114130     0.3086640790     0.0417676459
    2      C      -4.1311867600     1.1939845187     0.1317317550
    3      H      -5.4604084505    -0.1053128365    -0.9614474916
    4      H      -6.2616951627     0.8778185849     0.2749121766
    5      H      -5.2978892317    -0.5208288332     0.7496493045
    6      O      -2.9385221398     0.5142522378    -0.2118711614
    7      H      -4.0504606226     1.6301870507     1.1340464952
    8      H      -4.2087855286     2.0206327227    -0.5740738420
    9      H      -2.8933506909    -0.3021775240     0.2855951178
 ----------------------------------------------------------------

    7    -154.9825288497      7.42E-06 Convergence criterion met
    6    -155.0508298058      5.59E-06 Convergence criterion met
 Total energy in the final basis set = -155.05082981

                    Orbital Energies (a.u.)
 --------------------------------------------------------------

 Alpha MOs
 -- Occupied --
-19.2459 -10.3272 -10.2761  -1.1259  -0.8503  -0.7247  -0.5924  -0.5458
 -0.5288  -0.4681  -0.4590  -0.4133  -0.3620

                    Cartesian Multipole Moments
 -----------------------------------------------------------------
    Charge (ESU x 10^10)
                 0.0000
    Dipole Moment (Debye)
         X      -1.3363      Y      -0.5397      Z       1.0640
       Tot       1.7914
    Quadrupole Moments (Debye-Ang)
        XX     -11.1017     XY      -0.2774     YY     -18.8185
        XZ      -2.8567     YZ      -0.2711     ZZ     -20.0324

 Total job time:  11.11s(wall), 57.28s(cpu)
        *  Thank you very much for using Q-Chem.  Have a nice day.  *
