 Q-Chem 5.3 (devel), Q-Chem, Inc., Pleasanton, CA (2020)
 Q-Chem 5.3.0 for Intel X86 EM64T Linux

User input:
--------------------------------------------------------------
$rem
   JOBTYPE  sp
   EXCHANGE   omegaB97X-D
   BASIS   6-311+G(2df,2pd)
   UNRESTRICTED   False
   max_scf_cycles   250
   geom_opt_max_cycles   1500
   basis2 6-31G*
   scf_algorithm rca_diis
   SYM_IGNORE  TRUE
   print_input   true
   geom_opt_dmax   80
   pop_mulliken false
   XC_GRID 000075000302
$end

$molecule
0 1
C       -5.4413143065     0.2928663591     0.1532498130
C       -4.1376618278     1.0663011607     0.2268279800
H       -5.4600802320     -0.3404800285     -0.7334954211
H       -6.2912669493     0.9756998614     0.1114851435
H       -5.5684460145     -0.3440116365     1.0314869217
O       -2.9996148096     0.2252467098     0.2317502900
H       -4.1350296126     1.7225452708     1.1047578952
H       -4.0258796953     1.7021982148     -0.6510501746
H       -2.5435165521     0.3168540884     -0.6047024477
$end
--------------------------------------------------------------

             Standard Nuclear Orientation (Angstroms)
    I     Atom           X                Y                Z
 ----------------------------------------------------------------
    1      C      -5.4413143065     0.2928663591     0.1532498130
    2      C      -4.1376618278     1.0663011607     0.2268279800
    3      H      -5.4600802320    -0.3404800285    -0.7334954211
    4      H      -6.2912669493     0.9756998614     0.1114851435
    5      H      -5.5684460145    -0.3440116365     1.0314869217
    6      O      -2.9996148096     0.2252467098     0.2317502900
    7      H      -4.1350296126     1.7225452708     1.1047578952
    8      H      -4.0258796953     1.7021982148    -0.6510501746
    9      H      -2.5435165521     0.3168540884    -0.6047024477
 ----------------------------------------------------------------

    6    -154.9788995667      8.91E-05 Convergence criterion met
    6    -155.0479406382      6.20E-06 Convergence criterion met
 Total energy in the final basis set = -155.04794064

                    Orbital Energies (a.u.)
 --------------------------------------------------------------

 Alpha MOs
 -- Occupied --
-19.2452 -10.3280 -10.2698  -1.1260  -0.8486  -0.7136  -0.6085  -0.5512
 -0.4991  -0.4788  -0.4558  -0.4051  -0.3630

                    Cartesian Multipole Moments
 -----------------------------------------------------------------
    Charge (ESU x 10^10)
                 0.0000
    Dipole Moment (Debye)
         X      -0.5551      Y       0.9943      Z      -1.3428
       Tot       1.7607
    Quadrupole Moments (Debye-Ang)
        XX     -15.3284     XY      -3.8104     YY     -19.5078
        XZ       2.6064     YZ      -0.1148     ZZ     -19.0310

 Total job time:  10.87s(wall), 55.86s(cpu)
        *  Thank you very much for using Q-Chem.  Have a nice day.  *
