 Q-Chem 5.3 (devel), Q-Chem, Inc., Pleasanton, CA (2020)
 Q-Chem 5.3.0 for Intel X86 EM64T Linux

User input:
--------------------------------------------------------------
$rem
   JOBTYPE  sp
   EXCHANGE   omegaB97X-D
   BASIS   6-311+G(2df,2pd)
   UNRESTRICTED   False
   max_scf_cycles   250
   geom_opt_max_cycles   1500
   basis2 6-31G*
   scf_algorithm rca_diis
   SYM_IGNORE  TRUE
   print_input   true
   geom_opt_dmax   80
   pop_mulliken false
   XC_GRID 000075000302
$end

$molecule
0 1
C       -5.3624920219     0.2760362357     0.1198876190
C       -4.0877292805     1.0511346108     0.3979656410
H       -5.3807864855     -0.6485233069     0.6966474316
H       -5.4372240143     0.0269507749     -0.9397335101
H       -6.2437194945     0.8635522267     0.3869823090
O       -3.2273428914     1.1138720636     -0.7237950767
H       -3.5644263625     0.6234895980     1.2609245018
H       -4.3215565387     2.0867220195     0.6437580234
H       -2.9775329105     0.2239857778     -0.9723269389
$end
--------------------------------------------------------------

             Standard Nuclear Orientation (Angstroms)
    I     Atom           X                Y                Z
 ----------------------------------------------------------------
    1      C      -5.3624920219     0.2760362357     0.1198876190
    2      C      -4.0877292805     1.0511346108     0.3979656410
    3      H      -5.3807864855    -0.6485233069     0.6966474316
    4      H      -5.4372240143     0.0269507749    -0.9397335101
    5      H      -6.2437194945     0.8635522267     0.3869823090
    6      O      -3.2273428914     1.1138720636    -0.7237950767
    7      H      -3.5644263625     0.6234895980     1.2609245018
    8      H      -4.3215565387     2.0867220195     0.6437580234
    9      H      -2.9775329105     0.2239857778    -0.9723269389
 ----------------------------------------------------------------

    7    -154.9769060266      7.85E-06 Convergence criterion met
    6    -155.0456130581      5.67E-06 Convergence criterion met
 Total energy in the final basis set = -155.04561306

                    Orbital Energies (a.u.)
 --------------------------------------------------------------

 Alpha MOs
 -- Occupied --
-19.2455 -10.3259 -10.2721  -1.1258  -0.8492  -0.7223  -0.5957  -0.5447
 -0.5242  -0.4704  -0.4565  -0.4080  -0.3616

                    Cartesian Multipole Moments
 -----------------------------------------------------------------
    Charge (ESU x 10^10)
                -0.0000
    Dipole Moment (Debye)
         X      -0.6503      Y      -1.4332      Z       0.7664
       Tot       1.7506
    Quadrupole Moments (Debye-Ang)
        XX     -15.2674     XY       2.8708     YY     -21.6111
        XZ      -3.0375     YZ       2.5988     ZZ     -20.2334

 Total job time:  11.20s(wall), 57.84s(cpu)
        *  Thank you very much for using Q-Chem.  Have a nice day.  *
