 Q-Chem 5.3 (devel), Q-Chem, Inc., Pleasanton, CA (2020)
 Q-Chem 5.3.0 for Intel X86 EM64T Linux

User input:
--------------------------------------------------------------
$rem
   JOBTYPE  sp
   EXCHANGE   omegaB97X-D
   BASIS   6-311+G(2df,2pd)
   UNRESTRICTED   False
   max_scf_cycles   250
   geom_opt_max_cycles   1500
   basis2 6-31G*
   scf_algorithm rca_diis
   SYM_IGNORE  TRUE
   print_input   true
   geom_opt_dmax   80
   pop_mulliken false
   XC_GRID 000075000302
$end

$molecule
0 1
C       -5.3258778986     0.2988032557     0.0871666466
C       -4.1247552171     1.2184808810     0.2080893236
H       -5.3166127408     -0.2172666734     -0.8727202749
H       -6.2540858045     0.8664878576     0.1683433099
H       -5.3245511590     -0.4527039630     0.8798277416
O       -2.8937611409     0.5367308442     0.0583618848
H       -4.1533069938     1.7560944456     1.1628566501
H       -4.1411511979     1.9670036044     -0.5837283746
H       -3.0687078473     -0.3564102521     -0.2378869069
$end
--------------------------------------------------------------

             Standard Nuclear Orientation (Angstroms)
    I     Atom           X                Y                Z
 ----------------------------------------------------------------
    1      C      -5.3258778986     0.2988032557     0.0871666466
    2      C      -4.1247552171     1.2184808810     0.2080893236
    3      H      -5.3166127408    -0.2172666734    -0.8727202749
    4      H      -6.2540858045     0.8664878576     0.1683433099
    5      H      -5.3245511590    -0.4527039630     0.8798277416
    6      O      -2.8937611409     0.5367308442     0.0583618848
    7      H      -4.1533069938     1.7560944456     1.1628566501
    8      H      -4.1411511979     1.9670036044    -0.5837283746
    9      H      -3.0687078473    -0.3564102521    -0.2378869069
 ----------------------------------------------------------------

    6    -154.9795839854      9.15E-05 Convergence criterion met
    6    -155.0485024224      5.47E-06 Convergence criterion met
 Total energy in the final basis set = -155.04850242

                    Orbital Energies (a.u.)
 --------------------------------------------------------------

 Alpha MOs
 -- Occupied --
-19.2439 -10.3269 -10.2817  -1.1251  -0.8521  -0.7289  -0.5748  -0.5597
 -0.5388  -0.4661  -0.4615  -0.4156  -0.3581

                    Cartesian Multipole Moments
 -----------------------------------------------------------------
    Charge (ESU x 10^10)
                 0.0000
    Dipole Moment (Debye)
         X      -1.7983      Y      -0.6806      Z      -0.2819
       Tot       1.9433
    Quadrupole Moments (Debye-Ang)
        XX      -8.1880     XY       0.3450     YY     -18.7697
        XZ       0.4388     YZ       0.6133     ZZ     -19.9050

 Total job time:  10.92s(wall), 55.88s(cpu)
        *  Thank you very much for using Q-Chem.  Have a nice day.  *
