 Q-Chem 5.3 (devel), Q-Chem, Inc., Pleasanton, CA (2020)
 Q-Chem 5.3.0 for Intel X86 EM64T Linux

User input:
--------------------------------------------------------------
$rem
   JOBTYPE  sp
   EXCHANGE   omegaB97X-D
   BASIS   6-311+G(2df,2pd)
   UNRESTRICTED   False
   max_scf_cycles   250
   geom_opt_max_cycles   1500
   basis2 6-31G*
   scf_algorithm rca_diis
   SYM_IGNORE  TRUE
   print_input   true
   geom_opt_dmax   80
   pop_mulliken false
   XC_GRID 000075000302
$end

$molecule
0 1
C       -5.4544802659     0.2931807263     0.1569519662
C       -4.1397236757     1.0490547712     0.2134715271
H       -5.4921628666     -0.3418479706     -0.7279861631
H       -6.2955571545     0.9873655716     0.1234490921
H       -5.5799377249     -0.3399387414     1.0381424321
O       -3.0131670980     0.1926797002     0.2071588891
H       -4.1179657566     1.7071776651     1.0897277944
H       -4.0296224055     1.6814020553     -0.6671787926
H       -2.4801930520     0.3881462223     -0.5634267452
$end
--------------------------------------------------------------

             Standard Nuclear Orientation (Angstroms)
    I     Atom           X                Y                Z
 ----------------------------------------------------------------
    1      C      -5.4544802659     0.2931807263     0.1569519662
    2      C      -4.1397236757     1.0490547712     0.2134715271
    3      H      -5.4921628666    -0.3418479706    -0.7279861631
    4      H      -6.2955571545     0.9873655716     0.1234490921
    5      H      -5.5799377249    -0.3399387414     1.0381424321
    6      O      -3.0131670980     0.1926797002     0.2071588891
    7      H      -4.1179657566     1.7071776651     1.0897277944
    8      H      -4.0296224055     1.6814020553    -0.6671787926
    9      H      -2.4801930520     0.3881462223    -0.5634267452
 ----------------------------------------------------------------

    6    -154.9787136056      8.51E-05 Convergence criterion met
    6    -155.0478800704      6.25E-06 Convergence criterion met
 Total energy in the final basis set = -155.04788007

                    Orbital Energies (a.u.)
 --------------------------------------------------------------

 Alpha MOs
 -- Occupied --
-19.2452 -10.3279 -10.2699  -1.1259  -0.8487  -0.7124  -0.6096  -0.5523
 -0.4963  -0.4791  -0.4554  -0.4061  -0.3625

                    Cartesian Multipole Moments
 -----------------------------------------------------------------
    Charge (ESU x 10^10)
                 0.0000
    Dipole Moment (Debye)
         X      -0.4275      Y       1.1623      Z      -1.2382
       Tot       1.7512
    Quadrupole Moments (Debye-Ang)
        XX     -15.8241     XY      -4.0973     YY     -19.4715
        XZ       2.3245     YZ      -0.2479     ZZ     -19.1891

 Total job time:  10.75s(wall), 55.31s(cpu)
        *  Thank you very much for using Q-Chem.  Have a nice day.  *
