 Q-Chem 5.3 (devel), Q-Chem, Inc., Pleasanton, CA (2020)
 Q-Chem 5.3.0 for Intel X86 EM64T Linux

User input:
--------------------------------------------------------------
$rem
   JOBTYPE  sp
   EXCHANGE   omegaB97X-D
   BASIS   6-311+G(2df,2pd)
   UNRESTRICTED   False
   max_scf_cycles   250
   geom_opt_max_cycles   1500
   basis2 6-31G*
   scf_algorithm rca_diis
   SYM_IGNORE  TRUE
   print_input   true
   geom_opt_dmax   80
   pop_mulliken false
   XC_GRID 000075000302
$end

$molecule
0 1
C       -5.3712966691     0.2477823997     0.2002228531
C       -4.2046339979     1.2231084543     0.0722091838
H       -5.4346401081     -0.0074979905     -0.8600024220
H       -6.2439730044     0.9061558687     0.1956639140
H       -5.4637572821     -0.6250607653     0.8380244130
O       -2.9981562986     0.4972945909     -0.2199514389
H       -4.3115194675     1.6127540970     1.0955285285
H       -3.9623481039     2.0594043872     -0.5860660006
H       -2.6124850683     -0.2967210420     0.1346809691
$end
--------------------------------------------------------------

             Standard Nuclear Orientation (Angstroms)
    I     Atom           X                Y                Z
 ----------------------------------------------------------------
    1      C      -5.3712966691     0.2477823997     0.2002228531
    2      C      -4.2046339979     1.2231084543     0.0722091838
    3      H      -5.4346401081    -0.0074979905    -0.8600024220
    4      H      -6.2439730044     0.9061558687     0.1956639140
    5      H      -5.4637572821    -0.6250607653     0.8380244130
    6      O      -2.9981562986     0.4972945909    -0.2199514389
    7      H      -4.3115194675     1.6127540970     1.0955285285
    8      H      -3.9623481039     2.0594043872    -0.5860660006
    9      H      -2.6124850683    -0.2967210420     0.1346809691
 ----------------------------------------------------------------

    6    -154.9188059732      7.01E-05 Convergence criterion met
    6    -154.9911819145      7.36E-06 Convergence criterion met
 Total energy in the final basis set = -154.99118191

                    Orbital Energies (a.u.)
 --------------------------------------------------------------

 Alpha MOs
 -- Occupied --
-19.2306 -10.3382 -10.2761  -1.1045  -0.8579  -0.7349  -0.6008  -0.5473
 -0.5262  -0.4724  -0.4273  -0.3903  -0.3417

                    Cartesian Multipole Moments
 -----------------------------------------------------------------
    Charge (ESU x 10^10)
                 0.0000
    Dipole Moment (Debye)
         X      -0.9155      Y      -0.5306      Z       0.9271
       Tot       1.4068
    Quadrupole Moments (Debye-Ang)
        XX     -13.3233     XY      -0.3897     YY     -18.4052
        XZ      -2.9019     YZ      -0.9454     ZZ     -20.5925

 Total job time:  10.82s(wall), 55.67s(cpu)
        *  Thank you very much for using Q-Chem.  Have a nice day.  *
