 Q-Chem 5.3 (devel), Q-Chem, Inc., Pleasanton, CA (2020)
 Q-Chem 5.3.0 for Intel X86 EM64T Linux

User input:
--------------------------------------------------------------
$rem
   JOBTYPE  sp
   EXCHANGE   omegaB97X-D
   BASIS   6-311+G(2df,2pd)
   UNRESTRICTED   False
   max_scf_cycles   250
   geom_opt_max_cycles   1500
   basis2 6-31G*
   scf_algorithm rca_diis
   SYM_IGNORE  TRUE
   print_input   true
   geom_opt_dmax   80
   pop_mulliken false
   XC_GRID 000075000302
$end

$molecule
0 1
C       -5.2979098510     0.3832950879     0.0396450547
C       -4.0677356891     1.2053300222     0.1133980718
H       -5.6248729888     -0.1158831784     -0.8793636010
H       -6.3031081419     0.7889838486     0.1990666057
H       -5.4426254757     -0.4978972189     0.6751927616
O       -2.9061879407     0.4780206176     -0.1970563453
H       -3.9912939678     1.6096545072     1.1263792629
H       -4.2805995704     2.0475995716     -0.5449184687
H       -2.6884763744     -0.2818832578     0.3379666583
$end
--------------------------------------------------------------

             Standard Nuclear Orientation (Angstroms)
    I     Atom           X                Y                Z
 ----------------------------------------------------------------
    1      C      -5.2979098510     0.3832950879     0.0396450547
    2      C      -4.0677356891     1.2053300222     0.1133980718
    3      H      -5.6248729888    -0.1158831784    -0.8793636010
    4      H      -6.3031081419     0.7889838486     0.1990666057
    5      H      -5.4426254757    -0.4978972189     0.6751927616
    6      O      -2.9061879407     0.4780206176    -0.1970563453
    7      H      -3.9912939678     1.6096545072     1.1263792629
    8      H      -4.2805995704     2.0475995716    -0.5449184687
    9      H      -2.6884763744    -0.2818832578     0.3379666583
 ----------------------------------------------------------------

    6    -154.9547603997      8.40E-05 Convergence criterion met
    6    -155.0251986920      6.43E-06 Convergence criterion met
 Total energy in the final basis set = -155.02519869

                    Orbital Energies (a.u.)
 --------------------------------------------------------------

 Alpha MOs
 -- Occupied --
-19.2458 -10.3348 -10.2688  -1.1262  -0.8568  -0.7369  -0.6073  -0.5532
 -0.5361  -0.4506  -0.4403  -0.3989  -0.3664

                    Cartesian Multipole Moments
 -----------------------------------------------------------------
    Charge (ESU x 10^10)
                 0.0000
    Dipole Moment (Debye)
         X      -1.1085      Y      -0.4870      Z       1.1389
       Tot       1.6622
    Quadrupole Moments (Debye-Ang)
        XX     -11.5858     XY      -0.1953     YY     -18.8318
        XZ      -2.5259     YZ      -0.3668     ZZ     -20.4511

 Total job time:  10.77s(wall), 55.38s(cpu)
        *  Thank you very much for using Q-Chem.  Have a nice day.  *
