 Q-Chem 5.3 (devel), Q-Chem, Inc., Pleasanton, CA (2020)
 Q-Chem 5.3.0 for Intel X86 EM64T Linux

User input:
--------------------------------------------------------------
$rem
   JOBTYPE  sp
   EXCHANGE   omegaB97X-D
   BASIS   6-311+G(2df,2pd)
   UNRESTRICTED   False
   max_scf_cycles   250
   geom_opt_max_cycles   1500
   basis2 6-31G*
   scf_algorithm rca_diis
   SYM_IGNORE  TRUE
   print_input   true
   geom_opt_dmax   80
   pop_mulliken false
   XC_GRID 000075000302
$end

$molecule
0 1
C       -5.3443574543     0.2388098396     0.0422592369
C       -4.0884726831     1.2069209350     0.0978247328
H       -5.5215763881     -0.1152216512     -0.9740102900
H       -6.1830561907     0.9044480293     0.2680503943
H       -5.4024395035     -0.6047935322     0.7324634241
O       -2.9249616393     0.5054627952     -0.2635965392
H       -3.9461820716     1.5960026025     1.1141908407
H       -4.2545636262     2.0698906585     -0.5476355032
H       -2.9372004430     -0.1842996768     0.4007637037
$end
--------------------------------------------------------------

             Standard Nuclear Orientation (Angstroms)
    I     Atom           X                Y                Z
 ----------------------------------------------------------------
    1      C      -5.3443574543     0.2388098396     0.0422592369
    2      C      -4.0884726831     1.2069209350     0.0978247328
    3      H      -5.5215763881    -0.1152216512    -0.9740102900
    4      H      -6.1830561907     0.9044480293     0.2680503943
    5      H      -5.4024395035    -0.6047935322     0.7324634241
    6      O      -2.9249616393     0.5054627952    -0.2635965392
    7      H      -3.9461820716     1.5960026025     1.1141908407
    8      H      -4.2545636262     2.0698906585    -0.5476355032
    9      H      -2.9372004430    -0.1842996768     0.4007637037
 ----------------------------------------------------------------

    6    -154.9738591938      8.65E-05 Convergence criterion met
    6    -155.0416675939      5.67E-06 Convergence criterion met
 Total energy in the final basis set = -155.04166759

                    Orbital Energies (a.u.)
 --------------------------------------------------------------

 Alpha MOs
 -- Occupied --
-19.2472 -10.3343 -10.2790  -1.1343  -0.8371  -0.7235  -0.5947  -0.5418
 -0.5216  -0.4714  -0.4650  -0.4173  -0.3566

                    Cartesian Multipole Moments
 -----------------------------------------------------------------
    Charge (ESU x 10^10)
                 0.0000
    Dipole Moment (Debye)
         X      -1.3092      Y      -0.2657      Z       1.2791
       Tot       1.8495
    Quadrupole Moments (Debye-Ang)
        XX     -11.7132     XY      -0.8066     YY     -18.6340
        XZ      -3.2630     YZ      -0.4479     ZZ     -19.9081

 Total job time:  10.84s(wall), 55.73s(cpu)
        *  Thank you very much for using Q-Chem.  Have a nice day.  *
