 Q-Chem 5.3 (devel), Q-Chem, Inc., Pleasanton, CA (2020)
 Q-Chem 5.3.0 for Intel X86 EM64T Linux

User input:
--------------------------------------------------------------
$rem
   JOBTYPE  sp
   EXCHANGE   omegaB97X-D
   BASIS   6-311+G(2df,2pd)
   UNRESTRICTED   False
   max_scf_cycles   250
   geom_opt_max_cycles   1500
   basis2 6-31G*
   scf_algorithm rca_diis
   SYM_IGNORE  TRUE
   print_input   true
   geom_opt_dmax   80
   pop_mulliken false
   XC_GRID 000075000302
$end

$molecule
0 1
C       -5.3249312742     0.2480057051     -0.0877175689
C       -4.1821685269     1.2329601596     0.2501610123
H       -5.6789182588     -0.1739258700     -1.0193745283
H       -6.0617346230     0.9346972197     0.3545563566
H       -5.3457129734     -0.4675470827     0.7365344910
O       -2.9091889215     0.4412460138     -0.2693075039
H       -4.2946048290     1.7593961639     1.2031317803
H       -4.1360342008     1.9660306162     -0.5543103679
H       -2.6695163923     -0.3236429256     0.2566363290
$end
--------------------------------------------------------------

             Standard Nuclear Orientation (Angstroms)
    I     Atom           X                Y                Z
 ----------------------------------------------------------------
    1      C      -5.3249312742     0.2480057051    -0.0877175689
    2      C      -4.1821685269     1.2329601596     0.2501610123
    3      H      -5.6789182588    -0.1739258700    -1.0193745283
    4      H      -6.0617346230     0.9346972197     0.3545563566
    5      H      -5.3457129734    -0.4675470827     0.7365344910
    6      O      -2.9091889215     0.4412460138    -0.2693075039
    7      H      -4.2946048290     1.7593961639     1.2031317803
    8      H      -4.1360342008     1.9660306162    -0.5543103679
    9      H      -2.6695163923    -0.3236429256     0.2566363290
 ----------------------------------------------------------------

    7    -154.9252477710      1.47E-05 Convergence criterion met
    6    -154.9962091996      9.46E-06 Convergence criterion met
 Total energy in the final basis set = -154.99620920

                    Orbital Energies (a.u.)
 --------------------------------------------------------------

 Alpha MOs
 -- Occupied --
-19.2352 -10.3493 -10.2809  -1.0751  -0.8601  -0.7218  -0.5906  -0.5258
 -0.5017  -0.4849  -0.4323  -0.4073  -0.3518

                    Cartesian Multipole Moments
 -----------------------------------------------------------------
    Charge (ESU x 10^10)
                 0.0000
    Dipole Moment (Debye)
         X      -1.5082      Y      -0.1468      Z       1.4341
       Tot       2.0864
    Quadrupole Moments (Debye-Ang)
        XX      -9.8662     XY      -1.9745     YY     -18.1218
        XZ      -4.0445     YZ       0.7704     ZZ     -19.5469

 Total job time:  11.04s(wall), 56.88s(cpu)
        *  Thank you very much for using Q-Chem.  Have a nice day.  *
