 Q-Chem 5.3 (devel), Q-Chem, Inc., Pleasanton, CA (2020)
 Q-Chem 5.3.0 for Intel X86 EM64T Linux

User input:
--------------------------------------------------------------
$rem
   JOBTYPE  sp
   EXCHANGE   omegaB97X-D
   BASIS   6-311+G(2df,2pd)
   UNRESTRICTED   False
   max_scf_cycles   250
   geom_opt_max_cycles   1500
   basis2 6-31G*
   scf_algorithm rca_diis
   SYM_IGNORE  TRUE
   print_input   true
   geom_opt_dmax   80
   pop_mulliken false
   XC_GRID 000075000302
$end

$molecule
0 1
C       -5.3591967562     0.2933905580     -0.0412901572
C       -4.1315717301     1.1802414176     0.0846848411
H       -5.4394702333     -0.0078057314     -0.8000970628
H       -6.3607644431     0.9334507886     0.2471440272
H       -5.3038986531     -0.6057684011     0.7282759804
O       -2.9411504437     0.4964728690     -0.2591854497
H       -4.0458807023     1.6122470324     1.1356714677
H       -4.1982894152     1.9612447098     -0.5564343286
H       -2.8225876229     -0.2462532429     0.3315406820
$end
--------------------------------------------------------------

             Standard Nuclear Orientation (Angstroms)
    I     Atom           X                Y                Z
 ----------------------------------------------------------------
    1      C      -5.3591967562     0.2933905580    -0.0412901572
    2      C      -4.1315717301     1.1802414176     0.0846848411
    3      H      -5.4394702333    -0.0078057314    -0.8000970628
    4      H      -6.3607644431     0.9334507886     0.2471440272
    5      H      -5.3038986531    -0.6057684011     0.7282759804
    6      O      -2.9411504437     0.4964728690    -0.2591854497
    7      H      -4.0458807023     1.6122470324     1.1356714677
    8      H      -4.1982894152     1.9612447098    -0.5564343286
    9      H      -2.8225876229    -0.2462532429     0.3315406820
 ----------------------------------------------------------------

    7    -154.8819074308      8.28E-06 Convergence criterion met
    6    -154.9549656346      6.06E-06 Convergence criterion met
 Total energy in the final basis set = -154.95496563

                    Orbital Energies (a.u.)
 --------------------------------------------------------------

 Alpha MOs
 -- Occupied --
-19.2470 -10.3243 -10.2684  -1.1273  -0.8619  -0.7390  -0.6037  -0.5487
 -0.5152  -0.4966  -0.4446  -0.4146  -0.3623

                    Cartesian Multipole Moments
 -----------------------------------------------------------------
    Charge (ESU x 10^10)
                 0.0000
    Dipole Moment (Debye)
         X      -1.1218      Y      -0.4259      Z       1.0328
       Tot       1.5832
    Quadrupole Moments (Debye-Ang)
        XX     -12.6285     XY      -0.5793     YY     -18.8382
        XZ      -2.1909     YZ      -0.4451     ZZ     -19.9939

 Total job time:  11.13s(wall), 57.39s(cpu)
        *  Thank you very much for using Q-Chem.  Have a nice day.  *
