 Q-Chem 5.3 (devel), Q-Chem, Inc., Pleasanton, CA (2020)
 Q-Chem 5.3.0 for Intel X86 EM64T Linux

User input:
--------------------------------------------------------------
$rem
   JOBTYPE  sp
   EXCHANGE   omegaB97X-D
   BASIS   6-311+G(2df,2pd)
   UNRESTRICTED   False
   max_scf_cycles   250
   geom_opt_max_cycles   1500
   basis2 6-31G*
   scf_algorithm rca_diis
   SYM_IGNORE  TRUE
   print_input   true
   geom_opt_dmax   80
   pop_mulliken false
   XC_GRID 000075000302
$end

$molecule
0 1
C       -5.4546651580     0.2855757775     -0.0268139781
C       -4.0321166136     1.1812918171     0.1974753949
H       -5.6603730184     -0.1825004855     -0.9907186981
H       -6.3447110729     0.8182850010     0.3137724776
H       -5.3481097484     -0.5279178570     0.7032297449
O       -3.0751567530     0.5750888570     -0.1516138468
H       -4.0424021124     1.7189188461     1.1631044864
H       -3.9487235596     1.9540779983     -0.5741784394
H       -2.6965519635     -0.2055999545     0.2360528588
$end
--------------------------------------------------------------

             Standard Nuclear Orientation (Angstroms)
    I     Atom           X                Y                Z
 ----------------------------------------------------------------
    1      C      -5.4546651580     0.2855757775    -0.0268139781
    2      C      -4.0321166136     1.1812918171     0.1974753949
    3      H      -5.6603730184    -0.1825004855    -0.9907186981
    4      H      -6.3447110729     0.8182850010     0.3137724776
    5      H      -5.3481097484    -0.5279178570     0.7032297449
    6      O      -3.0751567530     0.5750888570    -0.1516138468
    7      H      -4.0424021124     1.7189188461     1.1631044864
    8      H      -3.9487235596     1.9540779983    -0.5741784394
    9      H      -2.6965519635    -0.2055999545     0.2360528588
 ----------------------------------------------------------------

    6    -154.9017830378      8.60E-05 Convergence criterion met
    6    -154.9733553360      5.94E-06 Convergence criterion met
 Total energy in the final basis set = -154.97335534

                    Orbital Energies (a.u.)
 --------------------------------------------------------------

 Alpha MOs
 -- Occupied --
-19.2525 -10.3262 -10.2646  -1.2181  -0.8190  -0.7624  -0.6220  -0.5706
 -0.5386  -0.4691  -0.4545  -0.3654  -0.3395

                    Cartesian Multipole Moments
 -----------------------------------------------------------------
    Charge (ESU x 10^10)
                 0.0000
    Dipole Moment (Debye)
         X       0.4296      Y      -0.8713      Z       0.8565
       Tot       1.2951
    Quadrupole Moments (Debye-Ang)
        XX     -23.7390     XY       2.0576     YY     -20.1395
        XZ      -2.1562     YZ       0.1889     ZZ     -20.1723

 Total job time:  10.75s(wall), 55.23s(cpu)
        *  Thank you very much for using Q-Chem.  Have a nice day.  *
