 Q-Chem 5.3 (devel), Q-Chem, Inc., Pleasanton, CA (2020)
 Q-Chem 5.3.0 for Intel X86 EM64T Linux

User input:
--------------------------------------------------------------
$rem
   JOBTYPE  sp
   EXCHANGE   omegaB97X-D
   BASIS   6-311+G(2df,2pd)
   UNRESTRICTED   False
   max_scf_cycles   250
   geom_opt_max_cycles   1500
   basis2 6-31G*
   scf_algorithm rca_diis
   SYM_IGNORE  TRUE
   print_input   true
   geom_opt_dmax   80
   pop_mulliken false
   XC_GRID 000075000302
$end

$molecule
0 1
C       -5.3799644665     0.3162653025     0.0299576331
C       -4.1331807703     1.1729927463     0.1330485795
H       -5.4905150141     -0.0714182787     -0.9519847573
H       -6.2396586955     0.8734126140     0.2757926209
H       -5.3188603193     -0.5635719562     0.7541844273
O       -2.9549109448     0.4850613091     -0.2381236518
H       -4.0400132801     1.5871896598     1.1244550454
H       -4.2094104809     2.0760417410     -0.6115835841
H       -2.8362960283     -0.2587531378     0.3545636871
$end
--------------------------------------------------------------

             Standard Nuclear Orientation (Angstroms)
    I     Atom           X                Y                Z
 ----------------------------------------------------------------
    1      C      -5.3799644665     0.3162653025     0.0299576331
    2      C      -4.1331807703     1.1729927463     0.1330485795
    3      H      -5.4905150141    -0.0714182787    -0.9519847573
    4      H      -6.2396586955     0.8734126140     0.2757926209
    5      H      -5.3188603193    -0.5635719562     0.7541844273
    6      O      -2.9549109448     0.4850613091    -0.2381236518
    7      H      -4.0400132801     1.5871896598     1.1244550454
    8      H      -4.2094104809     2.0760417410    -0.6115835841
    9      H      -2.8362960283    -0.2587531378     0.3545636871
 ----------------------------------------------------------------

    7    -154.9763044083      8.20E-06 Convergence criterion met
    6    -155.0445390460      5.69E-06 Convergence criterion met
 Total energy in the final basis set = -155.04453905

                    Orbital Energies (a.u.)
 --------------------------------------------------------------

 Alpha MOs
 -- Occupied --
-19.2472 -10.3339 -10.2730  -1.1268  -0.8501  -0.7195  -0.5995  -0.5394
 -0.5248  -0.4751  -0.4547  -0.4069  -0.3640

                    Cartesian Multipole Moments
 -----------------------------------------------------------------
    Charge (ESU x 10^10)
                 0.0000
    Dipole Moment (Debye)
         X      -1.1965      Y      -0.4368      Z       1.2555
       Tot       1.7885
    Quadrupole Moments (Debye-Ang)
        XX     -11.8537     XY      -0.5834     YY     -19.1001
        XZ      -3.2867     YZ      -0.2423     ZZ     -19.9193

 Total job time:  11.15s(wall), 57.54s(cpu)
        *  Thank you very much for using Q-Chem.  Have a nice day.  *
