 Q-Chem 5.3 (devel), Q-Chem, Inc., Pleasanton, CA (2020)
 Q-Chem 5.3.0 for Intel X86 EM64T Linux

User input:
--------------------------------------------------------------
$rem
   JOBTYPE  sp
   EXCHANGE   omegaB97X-D
   BASIS   6-311+G(2df,2pd)
   UNRESTRICTED   False
   max_scf_cycles   250
   geom_opt_max_cycles   1500
   basis2 6-31G*
   scf_algorithm rca_diis
   SYM_IGNORE  TRUE
   print_input   true
   geom_opt_dmax   80
   pop_mulliken false
   XC_GRID 000075000302
$end

$molecule
0 1
C       -5.3675644434     0.3205058710     -0.0283124197
C       -4.1346996826     1.2023312762     0.0722164997
H       -5.5674759102     -0.2197217705     -0.9514280936
H       -6.2554335919     0.8744032495     0.2806996784
H       -5.1873740774     -0.4042690949     0.7717999037
O       -2.9388693357     0.5045860047     -0.2256824792
H       -4.1040157893     1.4918859871     1.1308945154
H       -4.1348557397     2.1190549427     -0.5139284053
H       -2.9125214297     -0.2715564658     0.3340508008
$end
--------------------------------------------------------------

             Standard Nuclear Orientation (Angstroms)
    I     Atom           X                Y                Z
 ----------------------------------------------------------------
    1      C      -5.3675644434     0.3205058710    -0.0283124197
    2      C      -4.1346996826     1.2023312762     0.0722164997
    3      H      -5.5674759102    -0.2197217705    -0.9514280936
    4      H      -6.2554335919     0.8744032495     0.2806996784
    5      H      -5.1873740774    -0.4042690949     0.7717999037
    6      O      -2.9388693357     0.5045860047    -0.2256824792
    7      H      -4.1040157893     1.4918859871     1.1308945154
    8      H      -4.1348557397     2.1190549427    -0.5139284053
    9      H      -2.9125214297    -0.2715564658     0.3340508008
 ----------------------------------------------------------------

    7    -154.9764878399      7.54E-06 Convergence criterion met
    6    -155.0449822746      5.82E-06 Convergence criterion met
 Total energy in the final basis set = -155.04498227

                    Orbital Energies (a.u.)
 --------------------------------------------------------------

 Alpha MOs
 -- Occupied --
-19.2461 -10.3289 -10.2771  -1.1270  -0.8518  -0.7238  -0.5975  -0.5471
 -0.5200  -0.4785  -0.4554  -0.4135  -0.3602

                    Cartesian Multipole Moments
 -----------------------------------------------------------------
    Charge (ESU x 10^10)
                 0.0000
    Dipole Moment (Debye)
         X      -1.3509      Y      -0.4553      Z       1.1812
       Tot       1.8513
    Quadrupole Moments (Debye-Ang)
        XX     -11.0409     XY      -0.4251     YY     -18.8469
        XZ      -3.1929     YZ      -0.2503     ZZ     -19.9967

 Total job time:  11.27s(wall), 58.04s(cpu)
        *  Thank you very much for using Q-Chem.  Have a nice day.  *
