 Q-Chem 5.3 (devel), Q-Chem, Inc., Pleasanton, CA (2020)
 Q-Chem 5.3.0 for Intel X86 EM64T Linux

User input:
--------------------------------------------------------------
$rem
   JOBTYPE  sp
   EXCHANGE   omegaB97X-D
   BASIS   6-311+G(2df,2pd)
   UNRESTRICTED   False
   max_scf_cycles   250
   geom_opt_max_cycles   1500
   basis2 6-31G*
   scf_algorithm rca_diis
   SYM_IGNORE  TRUE
   print_input   true
   geom_opt_dmax   80
   pop_mulliken false
   XC_GRID 000075000302
$end

$molecule
0 1
C       -5.3723334639     0.2701435656     0.1347096432
C       -4.1749183358     1.2098246949     0.0937283796
H       -5.4536780080     -0.0429905296     -0.9075965636
H       -6.2573259373     0.9020634259     0.2379517253
H       -5.4028500101     -0.5940786872     0.7948031584
O       -2.9797261790     0.4973260440     -0.2309351098
H       -4.2033844630     1.6151180813     1.1143904296
H       -4.0609956020     2.0521926505     -0.5898657663
H       -2.6975980008     -0.2923792454     0.2231241038
$end
--------------------------------------------------------------

             Standard Nuclear Orientation (Angstroms)
    I     Atom           X                Y                Z
 ----------------------------------------------------------------
    1      C      -5.3723334639     0.2701435656     0.1347096432
    2      C      -4.1749183358     1.2098246949     0.0937283796
    3      H      -5.4536780080    -0.0429905296    -0.9075965636
    4      H      -6.2573259373     0.9020634259     0.2379517253
    5      H      -5.4028500101    -0.5940786872     0.7948031584
    6      O      -2.9797261790     0.4973260440    -0.2309351098
    7      H      -4.2033844630     1.6151180813     1.1143904296
    8      H      -4.0609956020     2.0521926505    -0.5898657663
    9      H      -2.6975980008    -0.2923792454     0.2231241038
 ----------------------------------------------------------------

    6    -154.9585704596      8.27E-05 Convergence criterion met
    6    -155.0286516735      6.41E-06 Convergence criterion met
 Total energy in the final basis set = -155.02865167

                    Orbital Energies (a.u.)
 --------------------------------------------------------------

 Alpha MOs
 -- Occupied --
-19.2375 -10.3329 -10.2745  -1.1125  -0.8526  -0.7303  -0.5982  -0.5456
 -0.5202  -0.4719  -0.4431  -0.4030  -0.3517

                    Cartesian Multipole Moments
 -----------------------------------------------------------------
    Charge (ESU x 10^10)
                 0.0000
    Dipole Moment (Debye)
         X      -1.0132      Y      -0.5047      Z       1.0692
       Tot       1.5570
    Quadrupole Moments (Debye-Ang)
        XX     -12.9577     XY      -0.4727     YY     -18.5005
        XZ      -3.0820     YZ      -0.7034     ZZ     -20.3456

 Total job time:  10.83s(wall), 55.59s(cpu)
        *  Thank you very much for using Q-Chem.  Have a nice day.  *
