 Q-Chem 5.3 (devel), Q-Chem, Inc., Pleasanton, CA (2020)
 Q-Chem 5.3.0 for Intel X86 EM64T Linux

User input:
--------------------------------------------------------------
$rem
   JOBTYPE  sp
   EXCHANGE   omegaB97X-D
   BASIS   6-311+G(2df,2pd)
   UNRESTRICTED   False
   max_scf_cycles   250
   geom_opt_max_cycles   1500
   basis2 6-31G*
   scf_algorithm rca_diis
   SYM_IGNORE  TRUE
   print_input   true
   geom_opt_dmax   80
   pop_mulliken false
   XC_GRID 000075000302
$end

$molecule
0 1
C       -5.3571956585     0.3155493536     0.0482057192
C       -4.1531669831     1.1773652765     0.1092028706
H       -5.4560285582     -0.0696987386     -0.9662241485
H       -6.2483321940     0.9006534866     0.2798248040
H       -5.3059524987     -0.5277060845     0.7386958955
O       -2.9277151005     0.4718363980     -0.2584894294
H       -4.0319983748     1.5778834930     1.1202987452
H       -4.2606662057     2.0228595475     -0.5680759581
H       -2.8617544265     -0.2515227321     0.3668715016
$end
--------------------------------------------------------------

             Standard Nuclear Orientation (Angstroms)
    I     Atom           X                Y                Z
 ----------------------------------------------------------------
    1      C      -5.3571956585     0.3155493536     0.0482057192
    2      C      -4.1531669831     1.1773652765     0.1092028706
    3      H      -5.4560285582    -0.0696987386    -0.9662241485
    4      H      -6.2483321940     0.9006534866     0.2798248040
    5      H      -5.3059524987    -0.5277060845     0.7386958955
    6      O      -2.9277151005     0.4718363980    -0.2584894294
    7      H      -4.0319983748     1.5778834930     1.1202987452
    8      H      -4.2606662057     2.0228595475    -0.5680759581
    9      H      -2.8617544265    -0.2515227321     0.3668715016
 ----------------------------------------------------------------

    7    -154.9800394748      8.77E-06 Convergence criterion met
    6    -155.0485290417      5.93E-06 Convergence criterion met
 Total energy in the final basis set = -155.04852904

                    Orbital Energies (a.u.)
 --------------------------------------------------------------

 Alpha MOs
 -- Occupied --
-19.2459 -10.3278 -10.2748  -1.1141  -0.8601  -0.7174  -0.5907  -0.5469
 -0.5262  -0.4687  -0.4560  -0.4178  -0.3640

                    Cartesian Multipole Moments
 -----------------------------------------------------------------
    Charge (ESU x 10^10)
                 0.0000
    Dipole Moment (Debye)
         X      -1.4357      Y      -0.3166      Z       1.2925
       Tot       1.9575
    Quadrupole Moments (Debye-Ang)
        XX     -10.2337     XY      -1.1455     YY     -18.7983
        XZ      -3.4327     YZ      -0.3996     ZZ     -19.8888

 Total job time:  11.12s(wall), 57.25s(cpu)
        *  Thank you very much for using Q-Chem.  Have a nice day.  *
