 Q-Chem 5.3 (devel), Q-Chem, Inc., Pleasanton, CA (2020)
 Q-Chem 5.3.0 for Intel X86 EM64T Linux

User input:
--------------------------------------------------------------
$rem
   JOBTYPE  sp
   EXCHANGE   omegaB97X-D
   BASIS   6-311+G(2df,2pd)
   UNRESTRICTED   False
   max_scf_cycles   250
   geom_opt_max_cycles   1500
   basis2 6-31G*
   scf_algorithm rca_diis
   SYM_IGNORE  TRUE
   print_input   true
   geom_opt_dmax   80
   pop_mulliken false
   XC_GRID 000075000302
$end

$molecule
0 1
C       -5.3168359097     0.3488210438     0.0518648647
C       -4.1556050194     1.2747299759     0.1591933183
H       -5.2629598587     -0.0420428293     -0.9637969135
H       -6.3246548953     0.7009958336     0.2625160644
H       -5.0947432617     -0.4924832035     0.7146978471
O       -3.1955174586     0.3528653541     -0.2929235738
H       -3.9129451655     1.7187863956     1.1307873057
H       -4.2012456024     2.0924682905     -0.5595534649
H       -3.1383028286     -0.3369208606     0.3675245522
$end
--------------------------------------------------------------

             Standard Nuclear Orientation (Angstroms)
    I     Atom           X                Y                Z
 ----------------------------------------------------------------
    1      C      -5.3168359097     0.3488210438     0.0518648647
    2      C      -4.1556050194     1.2747299759     0.1591933183
    3      H      -5.2629598587    -0.0420428293    -0.9637969135
    4      H      -6.3246548953     0.7009958336     0.2625160644
    5      H      -5.0947432617    -0.4924832035     0.7146978471
    6      O      -3.1955174586     0.3528653541    -0.2929235738
    7      H      -3.9129451655     1.7187863956     1.1307873057
    8      H      -4.2012456024     2.0924682905    -0.5595534649
    9      H      -3.1383028286    -0.3369208606     0.3675245522
 ----------------------------------------------------------------

    6    -154.9629333441      8.22E-05 Convergence criterion met
    6    -155.0312274713      6.09E-06 Convergence criterion met
 Total energy in the final basis set = -155.03122747

                    Orbital Energies (a.u.)
 --------------------------------------------------------------

 Alpha MOs
 -- Occupied --
-19.2411 -10.3257 -10.2692  -1.1364  -0.8451  -0.7260  -0.6050  -0.5525
 -0.5243  -0.4638  -0.4512  -0.4140  -0.3570

                    Cartesian Multipole Moments
 -----------------------------------------------------------------
    Charge (ESU x 10^10)
                -0.0000
    Dipole Moment (Debye)
         X      -0.8995      Y      -0.0872      Z       1.3200
       Tot       1.5998
    Quadrupole Moments (Debye-Ang)
        XX     -14.6394     XY      -1.0726     YY     -18.2107
        XZ      -3.6171     YZ      -0.3100     ZZ     -19.8699

 Total job time:  11.20s(wall), 57.59s(cpu)
        *  Thank you very much for using Q-Chem.  Have a nice day.  *
