 Q-Chem 5.3 (devel), Q-Chem, Inc., Pleasanton, CA (2020)
 Q-Chem 5.3.0 for Intel X86 EM64T Linux

User input:
--------------------------------------------------------------
$rem
   JOBTYPE  sp
   EXCHANGE   omegaB97X-D
   BASIS   6-311+G(2df,2pd)
   UNRESTRICTED   False
   max_scf_cycles   250
   geom_opt_max_cycles   1500
   basis2 6-31G*
   scf_algorithm rca_diis
   SYM_IGNORE  TRUE
   print_input   true
   geom_opt_dmax   80
   pop_mulliken false
   XC_GRID 000075000302
$end

$molecule
0 1
C       -5.4944466708     0.2205635676     -0.0053279176
C       -4.0611914374     0.8888444408     0.0321931833
H       -5.9728427679     -0.0548099816     -0.9457232763
H       -5.9397930595     1.1719672707     0.3128173232
H       -5.7647485050     -0.5179597872     0.7476586745
O       -2.6332293171     0.8123842341     -0.1018894717
H       -4.2463133710     1.2575689873     1.0491778264
H       -4.2402103696     1.7684995152     -0.5858982301
H       -2.2500345015     0.0701617531     0.3673018883
$end
--------------------------------------------------------------

             Standard Nuclear Orientation (Angstroms)
    I     Atom           X                Y                Z
 ----------------------------------------------------------------
    1      C      -5.4944466708     0.2205635676    -0.0053279176
    2      C      -4.0611914374     0.8888444408     0.0321931833
    3      H      -5.9728427679    -0.0548099816    -0.9457232763
    4      H      -5.9397930595     1.1719672707     0.3128173232
    5      H      -5.7647485050    -0.5179597872     0.7476586745
    6      O      -2.6332293171     0.8123842341    -0.1018894717
    7      H      -4.2463133710     1.2575689873     1.0491778264
    8      H      -4.2402103696     1.7684995152    -0.5858982301
    9      H      -2.2500345015     0.0701617531     0.3673018883
 ----------------------------------------------------------------

    7    -154.9219871430      1.13E-05 Convergence criterion met
    6    -154.9906814232      6.09E-06 Convergence criterion met
 Total energy in the final basis set = -154.99068142

                    Orbital Energies (a.u.)
 --------------------------------------------------------------

 Alpha MOs
 -- Occupied --
-19.2555 -10.3347 -10.2919  -1.1206  -0.8614  -0.7236  -0.5968  -0.5430
 -0.5086  -0.4708  -0.4483  -0.4110  -0.3524

                    Cartesian Multipole Moments
 -----------------------------------------------------------------
    Charge (ESU x 10^10)
                -0.0000
    Dipole Moment (Debye)
         X      -1.0987      Y      -0.9828      Z       0.9742
       Tot       1.7669
    Quadrupole Moments (Debye-Ang)
        XX     -11.1419     XY       0.6692     YY     -20.9188
        XZ      -2.2279     YZ      -0.2207     ZZ     -20.1857

 Total job time:  10.74s(wall), 55.53s(cpu)
        *  Thank you very much for using Q-Chem.  Have a nice day.  *
