 Q-Chem 5.3 (devel), Q-Chem, Inc., Pleasanton, CA (2020)
 Q-Chem 5.3.0 for Intel X86 EM64T Linux

User input:
--------------------------------------------------------------
$rem
   JOBTYPE  sp
   EXCHANGE   omegaB97X-D
   BASIS   6-311+G(2df,2pd)
   UNRESTRICTED   False
   max_scf_cycles   250
   geom_opt_max_cycles   1500
   basis2 6-31G*
   scf_algorithm rca_diis
   SYM_IGNORE  TRUE
   print_input   true
   geom_opt_dmax   80
   pop_mulliken false
   XC_GRID 000075000302
$end

$molecule
0 1
C       -5.4019467452     0.3809811486     0.0337578400
C       -4.1801711040     1.1506511461     0.1481845959
H       -5.4541476557     -0.0603232095     -0.9605117686
H       -6.3389346034     0.8649153359     0.3007064856
H       -5.2229884372     -0.4455571698     0.7262464175
O       -2.9860569937     0.4673937654     -0.2207207919
H       -4.1227779619     1.6076241351     1.1412118637
H       -4.1616073356     1.9528961428     -0.5881563788
H       -2.7341791632     -0.3013612947     0.2895917367
$end
--------------------------------------------------------------

             Standard Nuclear Orientation (Angstroms)
    I     Atom           X                Y                Z
 ----------------------------------------------------------------
    1      C      -5.4019467452     0.3809811486     0.0337578400
    2      C      -4.1801711040     1.1506511461     0.1481845959
    3      H      -5.4541476557    -0.0603232095    -0.9605117686
    4      H      -6.3389346034     0.8649153359     0.3007064856
    5      H      -5.2229884372    -0.4455571698     0.7262464175
    6      O      -2.9860569937     0.4673937654    -0.2207207919
    7      H      -4.1227779619     1.6076241351     1.1412118637
    8      H      -4.1616073356     1.9528961428    -0.5881563788
    9      H      -2.7341791632    -0.3013612947     0.2895917367
 ----------------------------------------------------------------

    7    -154.9714119901      1.09E-05 Convergence criterion met
    6    -155.0408391035      5.84E-06 Convergence criterion met
 Total energy in the final basis set = -155.04083910

                    Orbital Energies (a.u.)
 --------------------------------------------------------------

 Alpha MOs
 -- Occupied --
-19.2446 -10.3228 -10.2692  -1.1197  -0.8665  -0.7228  -0.6005  -0.5513
 -0.5306  -0.4659  -0.4480  -0.4015  -0.3673

                    Cartesian Multipole Moments
 -----------------------------------------------------------------
    Charge (ESU x 10^10)
                 0.0000
    Dipole Moment (Debye)
         X      -1.0562      Y      -0.5145      Z       1.1853
       Tot       1.6689
    Quadrupole Moments (Debye-Ang)
        XX     -12.2027     XY      -0.6381     YY     -19.2729
        XZ      -3.2682     YZ      -0.1139     ZZ     -19.9991

 Total job time:  11.14s(wall), 57.48s(cpu)
        *  Thank you very much for using Q-Chem.  Have a nice day.  *
