 Q-Chem 5.3 (devel), Q-Chem, Inc., Pleasanton, CA (2020)
 Q-Chem 5.3.0 for Intel X86 EM64T Linux

User input:
--------------------------------------------------------------
$rem
   JOBTYPE  sp
   EXCHANGE   omegaB97X-D
   BASIS   6-311+G(2df,2pd)
   UNRESTRICTED   False
   max_scf_cycles   250
   geom_opt_max_cycles   1500
   basis2 6-31G*
   scf_algorithm rca_diis
   SYM_IGNORE  TRUE
   print_input   true
   geom_opt_dmax   80
   pop_mulliken false
   XC_GRID 000075000302
$end

$molecule
0 1
C       -5.3361533695     0.2577576815     -0.0636570970
C       -4.1700668946     1.2223038013     0.2236614814
H       -5.6508552513     -0.1566118003     -1.0143752550
H       -6.1041218305     0.9297727692     0.3421962494
H       -5.3387180746     -0.4862133756     0.7354593119
O       -2.9134579611     0.4514648334     -0.2624014837
H       -4.2406621723     1.7297486871     1.1912070800
H       -4.1525479278     1.9775823999     -0.5612648024
H       -2.6962265182     -0.3085849964     0.2794845156
$end
--------------------------------------------------------------

             Standard Nuclear Orientation (Angstroms)
    I     Atom           X                Y                Z
 ----------------------------------------------------------------
    1      C      -5.3361533695     0.2577576815    -0.0636570970
    2      C      -4.1700668946     1.2223038013     0.2236614814
    3      H      -5.6508552513    -0.1566118003    -1.0143752550
    4      H      -6.1041218305     0.9297727692     0.3421962494
    5      H      -5.3387180746    -0.4862133756     0.7354593119
    6      O      -2.9134579611     0.4514648334    -0.2624014837
    7      H      -4.2406621723     1.7297486871     1.1912070800
    8      H      -4.1525479278     1.9775823999    -0.5612648024
    9      H      -2.6962265182    -0.3085849964     0.2794845156
 ----------------------------------------------------------------

    7    -154.9446432473      1.08E-05 Convergence criterion met
    6    -155.0147413094      8.19E-06 Convergence criterion met
 Total energy in the final basis set = -155.01474131

                    Orbital Energies (a.u.)
 --------------------------------------------------------------

 Alpha MOs
 -- Occupied --
-19.2377 -10.3445 -10.2794  -1.0834  -0.8569  -0.7215  -0.5903  -0.5285
 -0.4997  -0.4886  -0.4371  -0.4096  -0.3563

                    Cartesian Multipole Moments
 -----------------------------------------------------------------
    Charge (ESU x 10^10)
                -0.0000
    Dipole Moment (Debye)
         X      -1.4376      Y      -0.2024      Z       1.3998
       Tot       2.0167
    Quadrupole Moments (Debye-Ang)
        XX     -10.3736     XY      -1.7025     YY     -18.2625
        XZ      -3.8706     YZ       0.5470     ZZ     -19.6014

 Total job time:  11.02s(wall), 56.56s(cpu)
        *  Thank you very much for using Q-Chem.  Have a nice day.  *
