 Q-Chem 5.3 (devel), Q-Chem, Inc., Pleasanton, CA (2020)
 Q-Chem 5.3.0 for Intel X86 EM64T Linux

User input:
--------------------------------------------------------------
$rem
   JOBTYPE  sp
   EXCHANGE   omegaB97X-D
   BASIS   6-311+G(2df,2pd)
   UNRESTRICTED   False
   max_scf_cycles   250
   geom_opt_max_cycles   1500
   basis2 6-31G*
   scf_algorithm rca_diis
   SYM_IGNORE  TRUE
   print_input   true
   geom_opt_dmax   80
   pop_mulliken false
   XC_GRID 000075000302
$end

$molecule
0 1
C       -5.3735716940     0.3397937108     -0.0279579038
C       -4.1082363957     1.1543896895     0.1401922779
H       -5.5159309387     -0.1137475082     -1.0075752566
H       -6.2621786047     0.8725185069     0.3114001909
H       -5.2545038765     -0.4763415968     0.6926008210
O       -2.9369172861     0.4808195448     -0.2484894017
H       -3.9231125967     1.5839477088     1.1296568274
H       -4.3051724288     1.9769668365     -0.5457811182
H       -2.9231861787     -0.2011268923     0.4262635632
$end
--------------------------------------------------------------

             Standard Nuclear Orientation (Angstroms)
    I     Atom           X                Y                Z
 ----------------------------------------------------------------
    1      C      -5.3735716940     0.3397937108    -0.0279579038
    2      C      -4.1082363957     1.1543896895     0.1401922779
    3      H      -5.5159309387    -0.1137475082    -1.0075752566
    4      H      -6.2621786047     0.8725185069     0.3114001909
    5      H      -5.2545038765    -0.4763415968     0.6926008210
    6      O      -2.9369172861     0.4808195448    -0.2484894017
    7      H      -3.9231125967     1.5839477088     1.1296568274
    8      H      -4.3051724288     1.9769668365    -0.5457811182
    9      H      -2.9231861787    -0.2011268923     0.4262635632
 ----------------------------------------------------------------

    7    -154.9722771651      7.58E-06 Convergence criterion met
    6    -155.0403888529      5.50E-06 Convergence criterion met
 Total energy in the final basis set = -155.04038885

                    Orbital Energies (a.u.)
 --------------------------------------------------------------

 Alpha MOs
 -- Occupied --
-19.2506 -10.3257 -10.2759  -1.1366  -0.8519  -0.7179  -0.5977  -0.5456
 -0.5306  -0.4851  -0.4558  -0.4025  -0.3670

                    Cartesian Multipole Moments
 -----------------------------------------------------------------
    Charge (ESU x 10^10)
                 0.0000
    Dipole Moment (Debye)
         X      -1.2996      Y      -0.3304      Z       1.3251
       Tot       1.8852
    Quadrupole Moments (Debye-Ang)
        XX     -11.2609     XY      -0.7769     YY     -19.4009
        XZ      -3.3185     YZ      -0.0190     ZZ     -19.6556

 Total job time:  11.16s(wall), 57.46s(cpu)
        *  Thank you very much for using Q-Chem.  Have a nice day.  *
