 Q-Chem 5.3 (devel), Q-Chem, Inc., Pleasanton, CA (2020)
 Q-Chem 5.3.0 for Intel X86 EM64T Linux

User input:
--------------------------------------------------------------
$rem
   JOBTYPE  sp
   EXCHANGE   omegaB97X-D
   BASIS   6-311+G(2df,2pd)
   UNRESTRICTED   False
   max_scf_cycles   250
   geom_opt_max_cycles   1500
   basis2 6-31G*
   scf_algorithm rca_diis
   SYM_IGNORE  TRUE
   print_input   true
   geom_opt_dmax   80
   pop_mulliken false
   XC_GRID 000075000302
$end

$molecule
0 1
C       -5.3737589044     0.3128186097     0.0342250527
C       -4.1374548238     1.1893945401     0.1164294967
H       -5.4942367366     -0.0837128837     -0.9737412534
H       -6.2668509487     0.8833817429     0.2929367590
H       -5.3037881419     -0.5284859856     0.7268021589
O       -2.9564682163     0.5125730499     -0.2629878921
H       -4.0360690170     1.6079547225     1.1245175498
H       -4.2226554342     2.0271490830     -0.5730435926
H       -2.8115277770     -0.3038528787     0.3851717211
$end
--------------------------------------------------------------

             Standard Nuclear Orientation (Angstroms)
    I     Atom           X                Y                Z
 ----------------------------------------------------------------
    1      C      -5.3737589044     0.3128186097     0.0342250527
    2      C      -4.1374548238     1.1893945401     0.1164294967
    3      H      -5.4942367366    -0.0837128837    -0.9737412534
    4      H      -6.2668509487     0.8833817429     0.2929367590
    5      H      -5.3037881419    -0.5284859856     0.7268021589
    6      O      -2.9564682163     0.5125730499    -0.2629878921
    7      H      -4.0360690170     1.6079547225     1.1245175498
    8      H      -4.2226554342     2.0271490830    -0.5730435926
    9      H      -2.8115277770    -0.3038528787     0.3851717211
 ----------------------------------------------------------------

    7    -154.9767009702      9.61E-06 Convergence criterion met
    6    -155.0437319397      6.29E-06 Convergence criterion met
 Total energy in the final basis set = -155.04373194

                    Orbital Energies (a.u.)
 --------------------------------------------------------------

 Alpha MOs
 -- Occupied --
-19.2535 -10.3262 -10.2737  -1.1111  -0.8460  -0.7164  -0.5887  -0.5423
 -0.5214  -0.4685  -0.4572  -0.4095  -0.3598

                    Cartesian Multipole Moments
 -----------------------------------------------------------------
    Charge (ESU x 10^10)
                 0.0000
    Dipole Moment (Debye)
         X      -1.1358      Y      -0.4778      Z       1.2793
       Tot       1.7762
    Quadrupole Moments (Debye-Ang)
        XX     -12.4165     XY      -0.5005     YY     -18.9773
        XZ      -3.3336     YZ      -0.3523     ZZ     -20.0036

 Total job time:  11.10s(wall), 57.24s(cpu)
        *  Thank you very much for using Q-Chem.  Have a nice day.  *
