 Q-Chem 5.3 (devel), Q-Chem, Inc., Pleasanton, CA (2020)
 Q-Chem 5.3.0 for Intel X86 EM64T Linux

User input:
--------------------------------------------------------------
$rem
   JOBTYPE  sp
   EXCHANGE   omegaB97X-D
   BASIS   6-311+G(2df,2pd)
   UNRESTRICTED   False
   max_scf_cycles   250
   geom_opt_max_cycles   1500
   basis2 6-31G*
   scf_algorithm rca_diis
   SYM_IGNORE  TRUE
   print_input   true
   geom_opt_dmax   80
   pop_mulliken false
   XC_GRID 000075000302
$end

$molecule
0 1
C       -5.3943762636     0.3611918123     0.1046441645
C       -4.1174899082     1.1476353710     0.0524821719
H       -5.3408118315     -0.0386677270     -0.9126969211
H       -6.3611350294     0.8348690737     0.2451661139
H       -5.2867592395     -0.5310973398     0.7259796858
O       -3.0028816441     0.5173103762     -0.2344811690
H       -3.9016711510     1.4982604960     1.0693437154
H       -4.2408971110     2.0368902838     -0.5656020949
H       -2.9567878217     -0.2091723464     0.3854743335
$end
--------------------------------------------------------------

             Standard Nuclear Orientation (Angstroms)
    I     Atom           X                Y                Z
 ----------------------------------------------------------------
    1      C      -5.3943762636     0.3611918123     0.1046441645
    2      C      -4.1174899082     1.1476353710     0.0524821719
    3      H      -5.3408118315    -0.0386677270    -0.9126969211
    4      H      -6.3611350294     0.8348690737     0.2451661139
    5      H      -5.2867592395    -0.5310973398     0.7259796858
    6      O      -3.0028816441     0.5173103762    -0.2344811690
    7      H      -3.9016711510     1.4982604960     1.0693437154
    8      H      -4.2408971110     2.0368902838    -0.5656020949
    9      H      -2.9567878217    -0.2091723464     0.3854743335
 ----------------------------------------------------------------

    6    -154.9564743765      7.82E-05 Convergence criterion met
    6    -155.0255870090      5.19E-06 Convergence criterion met
 Total energy in the final basis set = -155.02558701

                    Orbital Energies (a.u.)
 --------------------------------------------------------------

 Alpha MOs
 -- Occupied --
-19.2513 -10.3185 -10.2717  -1.1708  -0.8504  -0.7287  -0.6094  -0.5605
 -0.5495  -0.4720  -0.4544  -0.4137  -0.3460

                    Cartesian Multipole Moments
 -----------------------------------------------------------------
    Charge (ESU x 10^10)
                 0.0000
    Dipole Moment (Debye)
         X      -0.9954      Y      -0.5655      Z       1.0784
       Tot       1.5728
    Quadrupole Moments (Debye-Ang)
        XX     -13.1158     XY       0.1499     YY     -19.5815
        XZ      -2.7346     YZ      -0.8957     ZZ     -20.3180

 Total job time:  11.04s(wall), 56.80s(cpu)
        *  Thank you very much for using Q-Chem.  Have a nice day.  *
