 Q-Chem 5.3 (devel), Q-Chem, Inc., Pleasanton, CA (2020)
 Q-Chem 5.3.0 for Intel X86 EM64T Linux

User input:
--------------------------------------------------------------
$rem
   JOBTYPE  sp
   EXCHANGE   omegaB97X-D
   BASIS   6-311+G(2df,2pd)
   UNRESTRICTED   False
   max_scf_cycles   250
   geom_opt_max_cycles   1500
   basis2 6-31G*
   scf_algorithm rca_diis
   SYM_IGNORE  TRUE
   print_input   true
   geom_opt_dmax   80
   pop_mulliken false
   XC_GRID 000075000302
$end

$molecule
0 1
C       -5.3853030573     0.3302161530     0.0297475575
C       -4.1375337741     1.1929068973     0.1121965695
H       -5.5002141943     -0.0772878203     -0.9798111974
H       -6.2189661650     0.8716376368     0.2660066154
H       -5.3203950138     -0.5530475561     0.7624268709
O       -2.9590078361     0.4959338669     -0.2495000638
H       -4.0358236501     1.6181386299     1.1301133505
H       -4.2069261939     1.9831924987     -0.5445261349
H       -2.8386401154     -0.2444703062     0.3436564325
$end
--------------------------------------------------------------

             Standard Nuclear Orientation (Angstroms)
    I     Atom           X                Y                Z
 ----------------------------------------------------------------
    1      C      -5.3853030573     0.3302161530     0.0297475575
    2      C      -4.1375337741     1.1929068973     0.1121965695
    3      H      -5.5002141943    -0.0772878203    -0.9798111974
    4      H      -6.2189661650     0.8716376368     0.2660066154
    5      H      -5.3203950138    -0.5530475561     0.7624268709
    6      O      -2.9590078361     0.4959338669    -0.2495000638
    7      H      -4.0358236501     1.6181386299     1.1301133505
    8      H      -4.2069261939     1.9831924987    -0.5445261349
    9      H      -2.8386401154    -0.2444703062     0.3436564325
 ----------------------------------------------------------------

    7    -154.9745109037      7.29E-06 Convergence criterion met
    6    -155.0433506908      5.51E-06 Convergence criterion met
 Total energy in the final basis set = -155.04335069

                    Orbital Energies (a.u.)
 --------------------------------------------------------------

 Alpha MOs
 -- Occupied --
-19.2451 -10.3223 -10.2732  -1.1249  -0.8526  -0.7275  -0.5943  -0.5491
 -0.5268  -0.4710  -0.4568  -0.4140  -0.3617

                    Cartesian Multipole Moments
 -----------------------------------------------------------------
    Charge (ESU x 10^10)
                -0.0000
    Dipole Moment (Debye)
         X      -1.2189      Y      -0.3242      Z       1.1966
       Tot       1.7386
    Quadrupole Moments (Debye-Ang)
        XX     -11.6304     XY      -1.1068     YY     -18.7892
        XZ      -3.0383     YZ      -0.3364     ZZ     -19.9294

 Total job time:  11.06s(wall), 56.99s(cpu)
        *  Thank you very much for using Q-Chem.  Have a nice day.  *
