 Q-Chem 5.3 (devel), Q-Chem, Inc., Pleasanton, CA (2020)
 Q-Chem 5.3.0 for Intel X86 EM64T Linux

User input:
--------------------------------------------------------------
$rem
   JOBTYPE  sp
   EXCHANGE   omegaB97X-D
   BASIS   6-311+G(2df,2pd)
   UNRESTRICTED   False
   max_scf_cycles   250
   geom_opt_max_cycles   1500
   basis2 6-31G*
   scf_algorithm rca_diis
   SYM_IGNORE  TRUE
   print_input   true
   geom_opt_dmax   80
   pop_mulliken false
   XC_GRID 000075000302
$end

$molecule
0 1
C       -5.3956385907     0.3348589971     0.0423788600
C       -4.1648270628     1.2303089795     0.1413995246
H       -5.4922779885     -0.1270292501     -0.9411660996
H       -6.2695698630     0.9321212872     0.3047314758
H       -5.3335588519     -0.5504497856     0.6814623377
O       -2.9595809691     0.5546988669     -0.2271114607
H       -3.9903654212     1.4864270758     1.1854094147
H       -4.1749928380     1.9472740506     -0.6734688630
H       -2.8219984148     -0.1909902214     0.3566748107
$end
--------------------------------------------------------------

             Standard Nuclear Orientation (Angstroms)
    I     Atom           X                Y                Z
 ----------------------------------------------------------------
    1      C      -5.3956385907     0.3348589971     0.0423788600
    2      C      -4.1648270628     1.2303089795     0.1413995246
    3      H      -5.4922779885    -0.1270292501    -0.9411660996
    4      H      -6.2695698630     0.9321212872     0.3047314758
    5      H      -5.3335588519    -0.5504497856     0.6814623377
    6      O      -2.9595809691     0.5546988669    -0.2271114607
    7      H      -3.9903654212     1.4864270758     1.1854094147
    8      H      -4.1749928380     1.9472740506    -0.6734688630
    9      H      -2.8219984148    -0.1909902214     0.3566748107
 ----------------------------------------------------------------

    6    -154.9703926158      9.77E-05 Convergence criterion met
    6    -155.0394598291      5.55E-06 Convergence criterion met
 Total energy in the final basis set = -155.03945983

                    Orbital Energies (a.u.)
 --------------------------------------------------------------

 Alpha MOs
 -- Occupied --
-19.2397 -10.3286 -10.2750  -1.1200  -0.8488  -0.7228  -0.5998  -0.5439
 -0.5189  -0.4705  -0.4526  -0.4145  -0.3574

                    Cartesian Multipole Moments
 -----------------------------------------------------------------
    Charge (ESU x 10^10)
                 0.0000
    Dipole Moment (Debye)
         X      -1.1927      Y      -0.5173      Z       1.2196
       Tot       1.7826
    Quadrupole Moments (Debye-Ang)
        XX     -12.1329     XY      -0.1890     YY     -19.3159
        XZ      -3.1445     YZ      -0.3061     ZZ     -19.7146

 Total job time:  10.98s(wall), 56.53s(cpu)
        *  Thank you very much for using Q-Chem.  Have a nice day.  *
