 Q-Chem 5.3 (devel), Q-Chem, Inc., Pleasanton, CA (2020)
 Q-Chem 5.3.0 for Intel X86 EM64T Linux

User input:
--------------------------------------------------------------
$rem
   JOBTYPE  sp
   EXCHANGE   omegaB97X-D
   BASIS   6-311+G(2df,2pd)
   UNRESTRICTED   False
   max_scf_cycles   250
   geom_opt_max_cycles   1500
   basis2 6-31G*
   scf_algorithm rca_diis
   SYM_IGNORE  TRUE
   print_input   true
   geom_opt_dmax   80
   pop_mulliken false
   XC_GRID 000075000302
$end

$molecule
0 1
C       -5.4231460352     0.2954462481     -0.0013930769
C       -4.0725054396     1.1826334733     0.1660560866
H       -5.5934596321     -0.1463697046     -0.9838514154
H       -6.3143551151     0.8461141750     0.3049681968
H       -5.3342140629     -0.5294729401     0.7144808137
O       -3.0268146177     0.5426491066     -0.1922361249
H       -4.0415276375     1.6728294138     1.1520838506
H       -4.0528044557     1.9848921054     -0.5760754998
H       -2.7439830040     -0.2315018774     0.2862771693
$end
--------------------------------------------------------------

             Standard Nuclear Orientation (Angstroms)
    I     Atom           X                Y                Z
 ----------------------------------------------------------------
    1      C      -5.4231460352     0.2954462481    -0.0013930769
    2      C      -4.0725054396     1.1826334733     0.1660560866
    3      H      -5.5934596321    -0.1463697046    -0.9838514154
    4      H      -6.3143551151     0.8461141750     0.3049681968
    5      H      -5.3342140629    -0.5294729401     0.7144808137
    6      O      -3.0268146177     0.5426491066    -0.1922361249
    7      H      -4.0415276375     1.6728294138     1.1520838506
    8      H      -4.0528044557     1.9848921054    -0.5760754998
    9      H      -2.7439830040    -0.2315018774     0.2862771693
 ----------------------------------------------------------------

    6    -154.9569098201      5.76E-05 Convergence criterion met
    6    -155.0259564689      5.47E-06 Convergence criterion met
 Total energy in the final basis set = -155.02595647

                    Orbital Energies (a.u.)
 --------------------------------------------------------------

 Alpha MOs
 -- Occupied --
-19.2482 -10.3260 -10.2705  -1.1737  -0.8253  -0.7461  -0.6129  -0.5510
 -0.5253  -0.4723  -0.4597  -0.3862  -0.3526

                    Cartesian Multipole Moments
 -----------------------------------------------------------------
    Charge (ESU x 10^10)
                -0.0000
    Dipole Moment (Debye)
         X      -0.2965      Y      -0.7007      Z       1.0380
       Tot       1.2870
    Quadrupole Moments (Debye-Ang)
        XX     -18.3780     XY       0.9431     YY     -19.5554
        XZ      -2.6375     YZ      -0.0047     ZZ     -20.0716

 Total job time:  10.74s(wall), 55.24s(cpu)
        *  Thank you very much for using Q-Chem.  Have a nice day.  *
