 Q-Chem 5.3 (devel), Q-Chem, Inc., Pleasanton, CA (2020)
 Q-Chem 5.3.0 for Intel X86 EM64T Linux

User input:
--------------------------------------------------------------
$rem
   JOBTYPE  sp
   EXCHANGE   omegaB97X-D
   BASIS   6-311+G(2df,2pd)
   UNRESTRICTED   False
   max_scf_cycles   250
   geom_opt_max_cycles   1500
   basis2 6-31G*
   scf_algorithm rca_diis
   SYM_IGNORE  TRUE
   print_input   true
   geom_opt_dmax   80
   pop_mulliken false
   XC_GRID 000075000302
$end

$molecule
0 1
C       -5.3453121007     0.3302293332     0.0443047278
C       -4.1452608421     1.2304749411     0.1414410683
H       -5.3755950865     -0.0701671694     -0.9687535360
H       -6.3023144752     0.7970796473     0.2755143288
H       -5.2037915313     -0.5131501564     0.7250788252
O       -3.0674490934     0.4195568273     -0.2708592299
H       -3.9758483167     1.6642548581     1.1333477042
H       -4.2044449304     2.0574017309     -0.5657664574
H       -2.9827936235     -0.2984600120     0.3560025691
$end
--------------------------------------------------------------

             Standard Nuclear Orientation (Angstroms)
    I     Atom           X                Y                Z
 ----------------------------------------------------------------
    1      C      -5.3453121007     0.3302293332     0.0443047278
    2      C      -4.1452608421     1.2304749411     0.1414410683
    3      H      -5.3755950865    -0.0701671694    -0.9687535360
    4      H      -6.3023144752     0.7970796473     0.2755143288
    5      H      -5.2037915313    -0.5131501564     0.7250788252
    6      O      -3.0674490934     0.4195568273    -0.2708592299
    7      H      -3.9758483167     1.6642548581     1.1333477042
    8      H      -4.2044449304     2.0574017309    -0.5657664574
    9      H      -2.9827936235    -0.2984600120     0.3560025691
 ----------------------------------------------------------------

    6    -154.9784623083      9.20E-05 Convergence criterion met
    6    -155.0466547816      5.78E-06 Convergence criterion met
 Total energy in the final basis set = -155.04665478

                    Orbital Energies (a.u.)
 --------------------------------------------------------------

 Alpha MOs
 -- Occupied --
-19.2438 -10.3262 -10.2716  -1.1298  -0.8479  -0.7239  -0.5993  -0.5477
 -0.5254  -0.4667  -0.4563  -0.4119  -0.3619

                    Cartesian Multipole Moments
 -----------------------------------------------------------------
    Charge (ESU x 10^10)
                 0.0000
    Dipole Moment (Debye)
         X      -1.0779      Y      -0.2456      Z       1.2944
       Tot       1.7022
    Quadrupole Moments (Debye-Ang)
        XX     -13.0094     XY      -0.9054     YY     -18.5651
        XZ      -3.4884     YZ      -0.3066     ZZ     -19.9017

 Total job time:  11.09s(wall), 57.15s(cpu)
        *  Thank you very much for using Q-Chem.  Have a nice day.  *
