 Q-Chem 5.3 (devel), Q-Chem, Inc., Pleasanton, CA (2020)
 Q-Chem 5.3.0 for Intel X86 EM64T Linux

User input:
--------------------------------------------------------------
$rem
   JOBTYPE  sp
   EXCHANGE   omegaB97X-D
   BASIS   6-311+G(2df,2pd)
   UNRESTRICTED   False
   max_scf_cycles   250
   geom_opt_max_cycles   1500
   basis2 6-31G*
   scf_algorithm rca_diis
   SYM_IGNORE  TRUE
   print_input   true
   geom_opt_dmax   80
   pop_mulliken false
   XC_GRID 000075000302
$end

$molecule
0 1
C       -5.4845851011     0.3216099329     0.0497890686
C       -4.0473596944     1.1449347891     0.0854356786
H       -5.3590429670     -0.0639349414     -0.9626542540
H       -6.1749549338     1.1373821764     0.2537330231
H       -5.2013198016     -0.4617318180     0.7512476804
O       -2.9389068453     0.4154121428     -0.1977245761
H       -4.2278652664     1.5331144204     1.0967535607
H       -4.5078756218     1.9407522150     -0.5031975188
H       -2.6608997685     -0.3503189171     0.2969273376
$end
--------------------------------------------------------------

             Standard Nuclear Orientation (Angstroms)
    I     Atom           X                Y                Z
 ----------------------------------------------------------------
    1      C      -5.4845851011     0.3216099329     0.0497890686
    2      C      -4.0473596944     1.1449347891     0.0854356786
    3      H      -5.3590429670    -0.0639349414    -0.9626542540
    4      H      -6.1749549338     1.1373821764     0.2537330231
    5      H      -5.2013198016    -0.4617318180     0.7512476804
    6      O      -2.9389068453     0.4154121428    -0.1977245761
    7      H      -4.2278652664     1.5331144204     1.0967535607
    8      H      -4.5078756218     1.9407522150    -0.5031975188
    9      H      -2.6608997685    -0.3503189171     0.2969273376
 ----------------------------------------------------------------

    6    -154.9177893405      9.84E-05 Convergence criterion met
    6    -154.9893190617      7.02E-06 Convergence criterion met
 Total energy in the final basis set = -154.98931906

                    Orbital Energies (a.u.)
 --------------------------------------------------------------

 Alpha MOs
 -- Occupied --
-19.2623 -10.3329 -10.2730  -1.1472  -0.8484  -0.7241  -0.6248  -0.5586
 -0.5191  -0.4716  -0.4589  -0.3872  -0.3362

                    Cartesian Multipole Moments
 -----------------------------------------------------------------
    Charge (ESU x 10^10)
                -0.0000
    Dipole Moment (Debye)
         X      -0.3672      Y      -0.4968      Z       1.0565
       Tot       1.2238
    Quadrupole Moments (Debye-Ang)
        XX     -18.8360     XY      -1.9178     YY     -19.2549
        XZ      -2.6600     YZ      -0.3782     ZZ     -20.4637

 Total job time:  10.88s(wall), 55.97s(cpu)
        *  Thank you very much for using Q-Chem.  Have a nice day.  *
