 Q-Chem 5.3 (devel), Q-Chem, Inc., Pleasanton, CA (2020)
 Q-Chem 5.3.0 for Intel X86 EM64T Linux

User input:
--------------------------------------------------------------
$rem
   JOBTYPE  sp
   EXCHANGE   omegaB97X-D
   BASIS   6-311+G(2df,2pd)
   UNRESTRICTED   False
   max_scf_cycles   250
   geom_opt_max_cycles   1500
   basis2 6-31G*
   scf_algorithm rca_diis
   SYM_IGNORE  TRUE
   print_input   true
   geom_opt_dmax   80
   pop_mulliken false
   XC_GRID 000075000302
$end

$molecule
0 1
C       -5.4111854862     0.3135466569     0.0411716190
C       -4.0936819191     1.1707055065     0.1089450223
H       -5.4372776337     -0.0816025751     -0.9745218193
H       -6.2351420555     0.9867713956     0.2769514989
H       -5.2644734227     -0.5085395808     0.7432087719
O       -2.9481932731     0.4547247673     -0.2262589485
H       -4.1121637952     1.5807987552     1.1261702809
H       -4.3340528308     2.0010940297     -0.5558479674
H       -2.7666395837     -0.3002789553     0.3304915424
$end
--------------------------------------------------------------

             Standard Nuclear Orientation (Angstroms)
    I     Atom           X                Y                Z
 ----------------------------------------------------------------
    1      C      -5.4111854862     0.3135466569     0.0411716190
    2      C      -4.0936819191     1.1707055065     0.1089450223
    3      H      -5.4372776337    -0.0816025751    -0.9745218193
    4      H      -6.2351420555     0.9867713956     0.2769514989
    5      H      -5.2644734227    -0.5085395808     0.7432087719
    6      O      -2.9481932731     0.4547247673    -0.2262589485
    7      H      -4.1121637952     1.5807987552     1.1261702809
    8      H      -4.3340528308     2.0010940297    -0.5558479674
    9      H      -2.7666395837    -0.3002789553     0.3304915424
 ----------------------------------------------------------------

    6    -154.9716595302      9.76E-05 Convergence criterion met
    6    -155.0404351972      5.26E-06 Convergence criterion met
 Total energy in the final basis set = -155.04043520

                    Orbital Energies (a.u.)
 --------------------------------------------------------------

 Alpha MOs
 -- Occupied --
-19.2521 -10.3292 -10.2729  -1.1333  -0.8460  -0.7211  -0.6051  -0.5539
 -0.5167  -0.4663  -0.4626  -0.4030  -0.3573

                    Cartesian Multipole Moments
 -----------------------------------------------------------------
    Charge (ESU x 10^10)
                 0.0000
    Dipole Moment (Debye)
         X      -0.8872      Y      -0.4309      Z       1.1710
       Tot       1.5310
    Quadrupole Moments (Debye-Ang)
        XX     -14.5469     XY      -1.2373     YY     -18.9424
        XZ      -2.9991     YZ      -0.3623     ZZ     -20.0738

 Total job time:  10.89s(wall), 55.95s(cpu)
        *  Thank you very much for using Q-Chem.  Have a nice day.  *
