 Q-Chem 5.3 (devel), Q-Chem, Inc., Pleasanton, CA (2020)
 Q-Chem 5.3.0 for Intel X86 EM64T Linux

User input:
--------------------------------------------------------------
$rem
   JOBTYPE  sp
   EXCHANGE   omegaB97X-D
   BASIS   6-311+G(2df,2pd)
   UNRESTRICTED   False
   max_scf_cycles   250
   geom_opt_max_cycles   1500
   basis2 6-31G*
   scf_algorithm rca_diis
   SYM_IGNORE  TRUE
   print_input   true
   geom_opt_dmax   80
   pop_mulliken false
   XC_GRID 000075000302
$end

$molecule
0 1
C       -5.4299055446     0.2691654837     0.0179853973
C       -4.1035334763     1.0611042079     0.0825326814
H       -5.7180157089     -0.0983731054     -0.9670302554
H       -6.1493198384     1.0417149312     0.3050009113
H       -5.5252379791     -0.5416774345     0.7412679808
O       -2.7695239263     0.6370647136     -0.1817956985
H       -4.1421357281     1.4579502170     1.1042016536
H       -4.2205568231     1.9174110945     -0.5813414300
H       -2.5445809750     -0.1271401080     0.3494887597
$end
--------------------------------------------------------------

             Standard Nuclear Orientation (Angstroms)
    I     Atom           X                Y                Z
 ----------------------------------------------------------------
    1      C      -5.4299055446     0.2691654837     0.0179853973
    2      C      -4.1035334763     1.0611042079     0.0825326814
    3      H      -5.7180157089    -0.0983731054    -0.9670302554
    4      H      -6.1493198384     1.0417149312     0.3050009113
    5      H      -5.5252379791    -0.5416774345     0.7412679808
    6      O      -2.7695239263     0.6370647136    -0.1817956985
    7      H      -4.1421357281     1.4579502170     1.1042016536
    8      H      -4.2205568231     1.9174110945    -0.5813414300
    9      H      -2.5445809750    -0.1271401080     0.3494887597
 ----------------------------------------------------------------

    7    -154.9695162344      7.47E-06 Convergence criterion met
    6    -155.0378219509      5.57E-06 Convergence criterion met
 Total energy in the final basis set = -155.03782195

                    Orbital Energies (a.u.)
 --------------------------------------------------------------

 Alpha MOs
 -- Occupied --
-19.2507 -10.3303 -10.2811  -1.1226  -0.8536  -0.7228  -0.5945  -0.5437
 -0.5157  -0.4720  -0.4573  -0.4133  -0.3597

                    Cartesian Multipole Moments
 -----------------------------------------------------------------
    Charge (ESU x 10^10)
                 0.0000
    Dipole Moment (Debye)
         X      -1.2144      Y      -0.7363      Z       1.1105
       Tot       1.8028
    Quadrupole Moments (Debye-Ang)
        XX     -11.3314     XY       0.0136     YY     -19.7961
        XZ      -2.7228     YZ      -0.2815     ZZ     -20.0156

 Total job time:  10.91s(wall), 56.33s(cpu)
        *  Thank you very much for using Q-Chem.  Have a nice day.  *
