 Q-Chem 5.3 (devel), Q-Chem, Inc., Pleasanton, CA (2020)
 Q-Chem 5.3.0 for Intel X86 EM64T Linux

User input:
--------------------------------------------------------------
$rem
   JOBTYPE  sp
   EXCHANGE   omegaB97X-D
   BASIS   6-311+G(2df,2pd)
   UNRESTRICTED   False
   max_scf_cycles   250
   geom_opt_max_cycles   1500
   basis2 6-31G*
   scf_algorithm rca_diis
   SYM_IGNORE  TRUE
   print_input   true
   geom_opt_dmax   80
   pop_mulliken false
   XC_GRID 000075000302
$end

$molecule
0 1
C       -5.3565877534     0.3232744031     -0.0904343472
C       -4.1388980771     1.2266448467     0.0252744237
H       -5.6277865218     -0.3384304877     -0.9081832520
H       -6.2340592819     0.8593995598     0.2747956997
H       -5.0675443753     -0.2637675648     0.7897151866
O       -2.9336191460     0.5165203051     -0.2020695796
H       -4.1757255604     1.3783560347     1.1140239748
H       -4.0686827304     2.2032712501     -0.4455143089
H       -2.9999065537     -0.2880483470     0.3127022030
$end
--------------------------------------------------------------

             Standard Nuclear Orientation (Angstroms)
    I     Atom           X                Y                Z
 ----------------------------------------------------------------
    1      C      -5.3565877534     0.3232744031    -0.0904343472
    2      C      -4.1388980771     1.2266448467     0.0252744237
    3      H      -5.6277865218    -0.3384304877    -0.9081832520
    4      H      -6.2340592819     0.8593995598     0.2747956997
    5      H      -5.0675443753    -0.2637675648     0.7897151866
    6      O      -2.9336191460     0.5165203051    -0.2020695796
    7      H      -4.1757255604     1.3783560347     1.1140239748
    8      H      -4.0686827304     2.2032712501    -0.4455143089
    9      H      -2.9999065537    -0.2880483470     0.3127022030
 ----------------------------------------------------------------

    6    -154.9568163776      9.85E-05 Convergence criterion met
    6    -155.0261509853      6.19E-06 Convergence criterion met
 Total energy in the final basis set = -155.02615099

                    Orbital Energies (a.u.)
 --------------------------------------------------------------

 Alpha MOs
 -- Occupied --
-19.2458 -10.3322 -10.2807  -1.1288  -0.8579  -0.7242  -0.6014  -0.5495
 -0.5179  -0.4860  -0.4501  -0.4126  -0.3570

                    Cartesian Multipole Moments
 -----------------------------------------------------------------
    Charge (ESU x 10^10)
                 0.0000
    Dipole Moment (Debye)
         X      -1.5068      Y      -0.4764      Z       1.1046
       Tot       1.9281
    Quadrupole Moments (Debye-Ang)
        XX     -10.1031     XY      -0.1624     YY     -18.7029
        XZ      -3.1062     YZ      -0.1674     ZZ     -20.1573

 Total job time:  10.95s(wall), 56.31s(cpu)
        *  Thank you very much for using Q-Chem.  Have a nice day.  *
