 Q-Chem 5.3 (devel), Q-Chem, Inc., Pleasanton, CA (2020)
 Q-Chem 5.3.0 for Intel X86 EM64T Linux

User input:
--------------------------------------------------------------
$rem
   JOBTYPE  sp
   EXCHANGE   omegaB97X-D
   BASIS   6-311+G(2df,2pd)
   UNRESTRICTED   False
   max_scf_cycles   250
   geom_opt_max_cycles   1500
   basis2 6-31G*
   scf_algorithm rca_diis
   SYM_IGNORE  TRUE
   print_input   true
   geom_opt_dmax   80
   pop_mulliken false
   XC_GRID 000075000302
$end

$molecule
0 1
C       -5.4499558524     0.2369087785     -0.0137872389
C       -4.2743676458     1.1813037823     0.1337870019
H       -5.5193533143     -0.0750982096     -1.0530045199
H       -6.2413072358     0.9604782609     0.1910636906
H       -5.3408626723     -0.4848815806     0.7858386196
O       -3.0205905233     0.4673392469     -0.0590804364
H       -3.7440544138     1.5337849917     1.0148046408
H       -4.4132872923     2.0626922835     -0.5031099704
H       -2.5990310498     -0.2653075537     0.3737982129
$end
--------------------------------------------------------------

             Standard Nuclear Orientation (Angstroms)
    I     Atom           X                Y                Z
 ----------------------------------------------------------------
    1      C      -5.4499558524     0.2369087785    -0.0137872389
    2      C      -4.2743676458     1.1813037823     0.1337870019
    3      H      -5.5193533143    -0.0750982096    -1.0530045199
    4      H      -6.2413072358     0.9604782609     0.1910636906
    5      H      -5.3408626723    -0.4848815806     0.7858386196
    6      O      -3.0205905233     0.4673392469    -0.0590804364
    7      H      -3.7440544138     1.5337849917     1.0148046408
    8      H      -4.4132872923     2.0626922835    -0.5031099704
    9      H      -2.5990310498    -0.2653075537     0.3737982129
 ----------------------------------------------------------------

    6    -154.9107877501      7.40E-05 Convergence criterion met
    6    -154.9851855299      9.11E-06 Convergence criterion met
 Total energy in the final basis set = -154.98518553

                    Orbital Energies (a.u.)
 --------------------------------------------------------------

 Alpha MOs
 -- Occupied --
-19.2188 -10.3321 -10.2786  -1.0997  -0.8577  -0.7329  -0.5816  -0.5610
 -0.5095  -0.4805  -0.4640  -0.3657  -0.3347

                    Cartesian Multipole Moments
 -----------------------------------------------------------------
    Charge (ESU x 10^10)
                -0.0000
    Dipole Moment (Debye)
         X      -0.9109      Y      -0.3671      Z       0.9370
       Tot       1.3574
    Quadrupole Moments (Debye-Ang)
        XX     -13.2615     XY      -1.2621     YY     -18.8201
        XZ      -1.4323     YZ      -0.6224     ZZ     -19.9028

 Total job time:  10.88s(wall), 55.92s(cpu)
        *  Thank you very much for using Q-Chem.  Have a nice day.  *
