 Q-Chem 5.3 (devel), Q-Chem, Inc., Pleasanton, CA (2020)
 Q-Chem 5.3.0 for Intel X86 EM64T Linux

User input:
--------------------------------------------------------------
$rem
   JOBTYPE  sp
   EXCHANGE   omegaB97X-D
   BASIS   6-311+G(2df,2pd)
   UNRESTRICTED   False
   max_scf_cycles   250
   geom_opt_max_cycles   1500
   basis2 6-31G*
   scf_algorithm rca_diis
   SYM_IGNORE  TRUE
   print_input   true
   geom_opt_dmax   80
   pop_mulliken false
   XC_GRID 000075000302
$end

$molecule
0 1
C       -5.3709207347     0.3848276163     -0.1179089546
C       -4.0778399317     1.1097390491     0.1650872807
H       -5.5494812195     -0.1384138993     -1.0542223244
H       -6.2452402056     0.8463138967     0.3386161363
H       -5.1719855982     -0.3891550435     0.6373658452
O       -2.9163080862     0.4610809241     -0.2453693563
H       -3.7613069649     1.5442049279     1.1156121858
H       -4.4412168899     1.8964171048     -0.4927442681
H       -3.0685103692     -0.0977945761     0.5238734556
$end
--------------------------------------------------------------

             Standard Nuclear Orientation (Angstroms)
    I     Atom           X                Y                Z
 ----------------------------------------------------------------
    1      C      -5.3709207347     0.3848276163    -0.1179089546
    2      C      -4.0778399317     1.1097390491     0.1650872807
    3      H      -5.5494812195    -0.1384138993    -1.0542223244
    4      H      -6.2452402056     0.8463138967     0.3386161363
    5      H      -5.1719855982    -0.3891550435     0.6373658452
    6      O      -2.9163080862     0.4610809241    -0.2453693563
    7      H      -3.7613069649     1.5442049279     1.1156121858
    8      H      -4.4412168899     1.8964171048    -0.4927442681
    9      H      -3.0685103692    -0.0977945761     0.5238734556
 ----------------------------------------------------------------

    7    -154.9136656349      1.13E-05 Convergence criterion met
    6    -154.9833049800      5.83E-06 Convergence criterion met
 Total energy in the final basis set = -154.98330498

                    Orbital Energies (a.u.)
 --------------------------------------------------------------

 Alpha MOs
 -- Occupied --
-19.2549 -10.3270 -10.2809  -1.1557  -0.8625  -0.7106  -0.6089  -0.5484
 -0.5427  -0.5038  -0.4617  -0.3791  -0.3583

                    Cartesian Multipole Moments
 -----------------------------------------------------------------
    Charge (ESU x 10^10)
                 0.0000
    Dipole Moment (Debye)
         X      -1.5112      Y      -0.1790      Z       1.3820
       Tot       2.0557
    Quadrupole Moments (Debye-Ang)
        XX      -9.6884     XY      -1.0227     YY     -20.2512
        XZ      -3.2890     YZ       0.3989     ZZ     -19.2736

 Total job time:  11.42s(wall), 58.77s(cpu)
        *  Thank you very much for using Q-Chem.  Have a nice day.  *
