 Q-Chem 5.3 (devel), Q-Chem, Inc., Pleasanton, CA (2020)
 Q-Chem 5.3.0 for Intel X86 EM64T Linux

User input:
--------------------------------------------------------------
$rem
   JOBTYPE  sp
   EXCHANGE   omegaB97X-D
   BASIS   6-311+G(2df,2pd)
   UNRESTRICTED   False
   max_scf_cycles   250
   geom_opt_max_cycles   1500
   basis2 6-31G*
   scf_algorithm rca_diis
   SYM_IGNORE  TRUE
   print_input   true
   geom_opt_dmax   80
   pop_mulliken false
   XC_GRID 000075000302
$end

$molecule
0 1
C       -5.5015834274     0.1856261962     0.0211452237
C       -4.2501508416     1.1210422834     0.1257380883
H       -5.2681565763     0.0033205958     -1.0195418059
H       -6.1161878343     1.0019998909     0.3857775072
H       -5.1015187554     -0.4869653527     0.7758907033
O       -3.0407633023     0.4950533548     -0.3051899600
H       -4.1341356959     1.5669419592     1.1242988233
H       -4.1433970984     1.9326345885     -0.5930662737
H       -3.0469164682     -0.2024335160     0.3552576940
$end
--------------------------------------------------------------

             Standard Nuclear Orientation (Angstroms)
    I     Atom           X                Y                Z
 ----------------------------------------------------------------
    1      C      -5.5015834274     0.1856261962     0.0211452237
    2      C      -4.2501508416     1.1210422834     0.1257380883
    3      H      -5.2681565763     0.0033205958    -1.0195418059
    4      H      -6.1161878343     1.0019998909     0.3857775072
    5      H      -5.1015187554    -0.4869653527     0.7758907033
    6      O      -3.0407633023     0.4950533548    -0.3051899600
    7      H      -4.1341356959     1.5669419592     1.1242988233
    8      H      -4.1433970984     1.9326345885    -0.5930662737
    9      H      -3.0469164682    -0.2024335160     0.3552576940
 ----------------------------------------------------------------

    7    -154.9235673810      1.21E-05 Convergence criterion met
    6    -154.9934593522      6.70E-06 Convergence criterion met
 Total energy in the final basis set = -154.99345935

                    Orbital Energies (a.u.)
 --------------------------------------------------------------

 Alpha MOs
 -- Occupied --
-19.2508 -10.3293 -10.2846  -1.1348  -0.8637  -0.7157  -0.6065  -0.5521
 -0.5219  -0.4689  -0.4556  -0.4179  -0.3578

                    Cartesian Multipole Moments
 -----------------------------------------------------------------
    Charge (ESU x 10^10)
                -0.0000
    Dipole Moment (Debye)
         X      -0.9223      Y      -0.0827      Z       1.3644
       Tot       1.6490
    Quadrupole Moments (Debye-Ang)
        XX     -16.0456     XY      -2.2817     YY     -19.3520
        XZ      -4.2627     YZ      -0.1494     ZZ     -19.5446

 Total job time:  11.43s(wall), 58.93s(cpu)
        *  Thank you very much for using Q-Chem.  Have a nice day.  *
