 Q-Chem 5.3 (devel), Q-Chem, Inc., Pleasanton, CA (2020)
 Q-Chem 5.3.0 for Intel X86 EM64T Linux

User input:
--------------------------------------------------------------
$rem
   JOBTYPE  sp
   EXCHANGE   omegaB97X-D
   BASIS   6-311+G(2df,2pd)
   UNRESTRICTED   False
   max_scf_cycles   250
   geom_opt_max_cycles   1500
   basis2 6-31G*
   scf_algorithm rca_diis
   SYM_IGNORE  TRUE
   print_input   true
   geom_opt_dmax   80
   pop_mulliken false
   XC_GRID 000075000302
$end

$molecule
0 1
C       -5.3310383537     0.3397128802     0.0481872202
C       -4.1506857433     1.2534408403     0.1504626930
H       -5.3188310378     -0.0571568388     -0.9665684931
H       -6.3153159378     0.7496457887     0.2691679899
H       -5.1491468232     -0.5033598609     0.7203193867
O       -3.1299373009     0.3855840977     -0.2825809540
H       -3.9447775345     1.6925454047     1.1329053410
H       -4.2026905535     2.0756970874     -0.5627025880
H       -3.0603867152     -0.3188893992     0.3611194043
$end
--------------------------------------------------------------

             Standard Nuclear Orientation (Angstroms)
    I     Atom           X                Y                Z
 ----------------------------------------------------------------
    1      C      -5.3310383537     0.3397128802     0.0481872202
    2      C      -4.1506857433     1.2534408403     0.1504626930
    3      H      -5.3188310378    -0.0571568388    -0.9665684931
    4      H      -6.3153159378     0.7496457887     0.2691679899
    5      H      -5.1491468232    -0.5033598609     0.7203193867
    6      O      -3.1299373009     0.3855840977    -0.2825809540
    7      H      -3.9447775345     1.6925454047     1.1329053410
    8      H      -4.2026905535     2.0756970874    -0.5627025880
    9      H      -3.0603867152    -0.3188893992     0.3611194043
 ----------------------------------------------------------------

    6    -154.9724365627      8.70E-05 Convergence criterion met
    6    -155.0406436586      5.90E-06 Convergence criterion met
 Total energy in the final basis set = -155.04064366

                    Orbital Energies (a.u.)
 --------------------------------------------------------------

 Alpha MOs
 -- Occupied --
-19.2425 -10.3259 -10.2704  -1.1326  -0.8466  -0.7247  -0.6017  -0.5499
 -0.5252  -0.4650  -0.4543  -0.4125  -0.3602

                    Cartesian Multipole Moments
 -----------------------------------------------------------------
    Charge (ESU x 10^10)
                -0.0000
    Dipole Moment (Debye)
         X      -1.0007      Y      -0.1643      Z       1.3112
       Tot       1.6576
    Quadrupole Moments (Debye-Ang)
        XX     -13.7144     XY      -1.0031     YY     -18.3856
        XZ      -3.5687     YZ      -0.3087     ZZ     -19.8860

 Total job time:  11.17s(wall), 57.61s(cpu)
        *  Thank you very much for using Q-Chem.  Have a nice day.  *
