 Q-Chem 5.3 (devel), Q-Chem, Inc., Pleasanton, CA (2020)
 Q-Chem 5.3.0 for Intel X86 EM64T Linux

User input:
--------------------------------------------------------------
$rem
   JOBTYPE  sp
   EXCHANGE   omegaB97X-D
   BASIS   6-311+G(2df,2pd)
   UNRESTRICTED   False
   max_scf_cycles   250
   geom_opt_max_cycles   1500
   basis2 6-31G*
   scf_algorithm rca_diis
   SYM_IGNORE  TRUE
   print_input   true
   geom_opt_dmax   80
   pop_mulliken false
   XC_GRID 000075000302
$end

$molecule
0 1
C       -5.3140884161     0.3682360028     0.0875772557
C       -4.0085103302     1.1439697693     0.1405148277
H       -5.4813673410     -0.0658071616     -0.9003290836
H       -6.2442322253     0.8490475292     0.3925625158
H       -5.3204955003     -0.5671472290     0.6662473511
O       -2.8907500350     0.5003726228     -0.3577080128
H       -4.2997911246     1.6066279884     1.0988731080
H       -4.0485559937     1.9414696533     -0.5933655786
H       -2.9950190335     -0.1595491751     0.3359376168
$end
--------------------------------------------------------------

             Standard Nuclear Orientation (Angstroms)
    I     Atom           X                Y                Z
 ----------------------------------------------------------------
    1      C      -5.3140884161     0.3682360028     0.0875772557
    2      C      -4.0085103302     1.1439697693     0.1405148277
    3      H      -5.4813673410    -0.0658071616    -0.9003290836
    4      H      -6.2442322253     0.8490475292     0.3925625158
    5      H      -5.3204955003    -0.5671472290     0.6662473511
    6      O      -2.8907500350     0.5003726228    -0.3577080128
    7      H      -4.2997911246     1.6066279884     1.0988731080
    8      H      -4.0485559937     1.9414696533    -0.5933655786
    9      H      -2.9950190335    -0.1595491751     0.3359376168
 ----------------------------------------------------------------

    7    -154.9328251938      1.04E-05 Convergence criterion met
    6    -155.0005449964      5.22E-06 Convergence criterion met
 Total energy in the final basis set = -155.00054500

                    Orbital Energies (a.u.)
 --------------------------------------------------------------

 Alpha MOs
 -- Occupied --
-19.2685 -10.3291 -10.2744  -1.1624  -0.8542  -0.7195  -0.6200  -0.5528
 -0.5188  -0.4768  -0.4593  -0.4131  -0.3620

                    Cartesian Multipole Moments
 -----------------------------------------------------------------
    Charge (ESU x 10^10)
                 0.0000
    Dipole Moment (Debye)
         X      -1.2947      Y      -0.4613      Z       1.3135
       Tot       1.9011
    Quadrupole Moments (Debye-Ang)
        XX     -11.2690     XY       0.0015     YY     -19.7383
        XZ      -4.3063     YZ      -0.1419     ZZ     -20.3480

 Total job time:  11.29s(wall), 58.10s(cpu)
        *  Thank you very much for using Q-Chem.  Have a nice day.  *
