 Q-Chem 5.3 (devel), Q-Chem, Inc., Pleasanton, CA (2020)
 Q-Chem 5.3.0 for Intel X86 EM64T Linux

User input:
--------------------------------------------------------------
$rem
   JOBTYPE  sp
   EXCHANGE   omegaB97X-D
   BASIS   6-311+G(2df,2pd)
   UNRESTRICTED   False
   max_scf_cycles   250
   geom_opt_max_cycles   1500
   basis2 6-31G*
   scf_algorithm rca_diis
   SYM_IGNORE  TRUE
   print_input   true
   geom_opt_dmax   80
   pop_mulliken false
   XC_GRID 000075000302
$end

$molecule
0 1
C       -5.5425952750     0.3750226449     0.0804929353
C       -4.1027049811     1.2970228140     0.1443826392
H       -5.4203079657     -0.0592758835     -0.9152572339
H       -6.5942367818     0.5973660976     0.2488263129
H       -5.2662556374     -0.4902655627     0.6919353184
O       -2.8947009694     0.4086674926     -0.2796182959
H       -3.8559312229     1.6958771358     1.1270904335
H       -4.0613753977     2.1066884835     -0.5793151684
H       -2.8647017688     -0.3138832222     0.3517730592
$end
--------------------------------------------------------------

             Standard Nuclear Orientation (Angstroms)
    I     Atom           X                Y                Z
 ----------------------------------------------------------------
    1      C      -5.5425952750     0.3750226449     0.0804929353
    2      C      -4.1027049811     1.2970228140     0.1443826392
    3      H      -5.4203079657    -0.0592758835    -0.9152572339
    4      H      -6.5942367818     0.5973660976     0.2488263129
    5      H      -5.2662556374    -0.4902655627     0.6919353184
    6      O      -2.8947009694     0.4086674926    -0.2796182959
    7      H      -3.8559312229     1.6958771358     1.1270904335
    8      H      -4.0613753977     2.1066884835    -0.5793151684
    9      H      -2.8647017688    -0.3138832222     0.3517730592
 ----------------------------------------------------------------

    7    -154.9427605662      2.18E-05 Convergence criterion met
    6    -155.0112185204      6.64E-06 Convergence criterion met
 Total energy in the final basis set = -155.01121852

                    Orbital Energies (a.u.)
 --------------------------------------------------------------

 Alpha MOs
 -- Occupied --
-19.2515 -10.3559 -10.2927  -1.0928  -0.8269  -0.7343  -0.5734  -0.5270
 -0.5152  -0.4549  -0.4464  -0.4259  -0.3687

                    Cartesian Multipole Moments
 -----------------------------------------------------------------
    Charge (ESU x 10^10)
                 0.0000
    Dipole Moment (Debye)
         X      -1.3795      Y      -0.1635      Z       1.3420
       Tot       1.9315
    Quadrupole Moments (Debye-Ang)
        XX     -10.2901     XY      -0.9969     YY     -18.4250
        XZ      -3.5929     YZ      -0.2956     ZZ     -20.3304

 Total job time:  10.77s(wall), 55.48s(cpu)
        *  Thank you very much for using Q-Chem.  Have a nice day.  *
