 Q-Chem 5.3 (devel), Q-Chem, Inc., Pleasanton, CA (2020)
 Q-Chem 5.3.0 for Intel X86 EM64T Linux

User input:
--------------------------------------------------------------
$rem
   JOBTYPE  sp
   EXCHANGE   omegaB97X-D
   BASIS   6-311+G(2df,2pd)
   UNRESTRICTED   False
   max_scf_cycles   250
   geom_opt_max_cycles   1500
   basis2 6-31G*
   scf_algorithm rca_diis
   SYM_IGNORE  TRUE
   print_input   true
   geom_opt_dmax   80
   pop_mulliken false
   XC_GRID 000075000302
$end

$molecule
0 1
C       -5.3564967817     0.2814904867     -0.0137908704
C       -4.1491413536     1.2010125443     0.1720442186
H       -5.5789613563     -0.1227988296     -0.9977883754
H       -6.1876671054     0.9130261797     0.3157039335
H       -5.3260909750     -0.5138554542     0.7339268429
O       -2.9287595225     0.4713036436     -0.2516568925
H       -4.1351067692     1.6676194528     1.1630573164
H       -4.1827590525     1.9984385408     -0.5696954673
H       -2.7578270837     -0.2790165641     0.3185092943
$end
--------------------------------------------------------------

             Standard Nuclear Orientation (Angstroms)
    I     Atom           X                Y                Z
 ----------------------------------------------------------------
    1      C      -5.3564967817     0.2814904867    -0.0137908704
    2      C      -4.1491413536     1.2010125443     0.1720442186
    3      H      -5.5789613563    -0.1227988296    -0.9977883754
    4      H      -6.1876671054     0.9130261797     0.3157039335
    5      H      -5.3260909750    -0.5138554542     0.7339268429
    6      O      -2.9287595225     0.4713036436    -0.2516568925
    7      H      -4.1351067692     1.6676194528     1.1630573164
    8      H      -4.1827590525     1.9984385408    -0.5696954673
    9      H      -2.7578270837    -0.2790165641     0.3185092943
 ----------------------------------------------------------------

    6    -154.9724744007      9.67E-05 Convergence criterion met
    6    -155.0412921081      6.55E-06 Convergence criterion met
 Total energy in the final basis set = -155.04129211

                    Orbital Energies (a.u.)
 --------------------------------------------------------------

 Alpha MOs
 -- Occupied --
-19.2423 -10.3354 -10.2767  -1.1027  -0.8523  -0.7215  -0.5918  -0.5362
 -0.5088  -0.4815  -0.4477  -0.4115  -0.3625

                    Cartesian Multipole Moments
 -----------------------------------------------------------------
    Charge (ESU x 10^10)
                -0.0000
    Dipole Moment (Debye)
         X      -1.3037      Y      -0.3106      Z       1.3272
       Tot       1.8861
    Quadrupole Moments (Debye-Ang)
        XX     -11.2804     XY      -1.1687     YY     -18.5789
        XZ      -3.5601     YZ       0.1139     ZZ     -19.7432

 Total job time:  10.76s(wall), 55.45s(cpu)
        *  Thank you very much for using Q-Chem.  Have a nice day.  *
