 Q-Chem 5.3 (devel), Q-Chem, Inc., Pleasanton, CA (2020)
 Q-Chem 5.3.0 for Intel X86 EM64T Linux

User input:
--------------------------------------------------------------
$rem
   JOBTYPE  sp
   EXCHANGE   omegaB97X-D
   BASIS   6-311+G(2df,2pd)
   UNRESTRICTED   False
   max_scf_cycles   250
   geom_opt_max_cycles   1500
   basis2 6-31G*
   scf_algorithm rca_diis
   SYM_IGNORE  TRUE
   print_input   true
   geom_opt_dmax   80
   pop_mulliken false
   XC_GRID 000075000302
$end

$molecule
0 1
C       -5.4113514322     0.3619651705     0.0494665380
C       -4.1973213514     1.2911286067     0.1628034725
H       -5.4836764726     -0.1597981320     -0.9069949469
H       -6.2716563604     0.9730335252     0.3227064711
H       -5.3432803182     -0.5651102502     0.6281989265
O       -2.9752916166     0.6168872351     -0.2109231732
H       -3.9507241981     1.3687546627     1.2134316711
H       -4.1416260276     1.8639551003     -0.7523905724
H       -2.8278822226     -0.1335959183     0.3640116134
$end
--------------------------------------------------------------

             Standard Nuclear Orientation (Angstroms)
    I     Atom           X                Y                Z
 ----------------------------------------------------------------
    1      C      -5.4113514322     0.3619651705     0.0494665380
    2      C      -4.1973213514     1.2911286067     0.1628034725
    3      H      -5.4836764726    -0.1597981320    -0.9069949469
    4      H      -6.2716563604     0.9730335252     0.3227064711
    5      H      -5.3432803182    -0.5651102502     0.6281989265
    6      O      -2.9752916166     0.6168872351    -0.2109231732
    7      H      -3.9507241981     1.3687546627     1.2134316711
    8      H      -4.1416260276     1.8639551003    -0.7523905724
    9      H      -2.8278822226    -0.1335959183     0.3640116134
 ----------------------------------------------------------------

    7    -154.9349300159      9.04E-06 Convergence criterion met
    6    -155.0057017668      5.96E-06 Convergence criterion met
 Total energy in the final basis set = -155.00570177

                    Orbital Energies (a.u.)
 --------------------------------------------------------------

 Alpha MOs
 -- Occupied --
-19.2355 -10.3299 -10.2752  -1.1178  -0.8488  -0.7247  -0.6108  -0.5473
 -0.5151  -0.4637  -0.4429  -0.4122  -0.3517

                    Cartesian Multipole Moments
 -----------------------------------------------------------------
    Charge (ESU x 10^10)
                -0.0000
    Dipole Moment (Debye)
         X      -1.1547      Y      -0.6503      Z       1.1767
       Tot       1.7723
    Quadrupole Moments (Debye-Ang)
        XX     -12.6668     XY       0.3970     YY     -19.7761
        XZ      -2.9925     YZ      -0.3003     ZZ     -19.6296

 Total job time:  11.18s(wall), 57.79s(cpu)
        *  Thank you very much for using Q-Chem.  Have a nice day.  *
