 Q-Chem 5.3 (devel), Q-Chem, Inc., Pleasanton, CA (2020)
 Q-Chem 5.3.0 for Intel X86 EM64T Linux

User input:
--------------------------------------------------------------
$rem
   JOBTYPE  sp
   EXCHANGE   omegaB97X-D
   BASIS   6-311+G(2df,2pd)
   UNRESTRICTED   False
   max_scf_cycles   250
   geom_opt_max_cycles   1500
   basis2 6-31G*
   scf_algorithm rca_diis
   SYM_IGNORE  TRUE
   print_input   true
   geom_opt_dmax   80
   pop_mulliken false
   XC_GRID 000075000302
$end

$molecule
0 1
C       -5.3859313103     0.3221706432     0.0240637525
C       -4.1335553865     1.1661786352     0.1434043152
H       -5.4905579841     -0.0536427230     -0.9325415863
H       -6.2140211105     0.8595663760     0.2642931623
H       -5.3247798593     -0.5983915537     0.7758883927
O       -2.9571729748     0.4798313207     -0.2323390332
H       -4.0448609870     1.5724945109     1.1193597210
H       -4.2094018049     2.1359540218     -0.6513712650
H       -2.8425285826     -0.2669412311     0.3595525408
$end
--------------------------------------------------------------

             Standard Nuclear Orientation (Angstroms)
    I     Atom           X                Y                Z
 ----------------------------------------------------------------
    1      C      -5.3859313103     0.3221706432     0.0240637525
    2      C      -4.1335553865     1.1661786352     0.1434043152
    3      H      -5.4905579841    -0.0536427230    -0.9325415863
    4      H      -6.2140211105     0.8595663760     0.2642931623
    5      H      -5.3247798593    -0.5983915537     0.7758883927
    6      O      -2.9571729748     0.4798313207    -0.2323390332
    7      H      -4.0448609870     1.5724945109     1.1193597210
    8      H      -4.2094018049     2.1359540218    -0.6513712650
    9      H      -2.8425285826    -0.2669412311     0.3595525408
 ----------------------------------------------------------------

    7    -154.9586901192      9.24E-06 Convergence criterion met
    6    -155.0273286916      5.84E-06 Convergence criterion met
 Total energy in the final basis set = -155.02732869

                    Orbital Energies (a.u.)
 --------------------------------------------------------------

 Alpha MOs
 -- Occupied --
-19.2486 -10.3402 -10.2715  -1.1280  -0.8520  -0.7185  -0.6031  -0.5389
 -0.5221  -0.4811  -0.4529  -0.4003  -0.3657

                    Cartesian Multipole Moments
 -----------------------------------------------------------------
    Charge (ESU x 10^10)
                -0.0000
    Dipole Moment (Debye)
         X      -1.2100      Y      -0.4722      Z       1.2741
       Tot       1.8195
    Quadrupole Moments (Debye-Ang)
        XX     -11.6806     XY      -0.4665     YY     -19.3059
        XZ      -3.3343     YZ      -0.1664     ZZ     -19.9068

 Total job time:  11.05s(wall), 56.99s(cpu)
        *  Thank you very much for using Q-Chem.  Have a nice day.  *
