 Q-Chem 5.3 (devel), Q-Chem, Inc., Pleasanton, CA (2020)
 Q-Chem 5.3.0 for Intel X86 EM64T Linux

User input:
--------------------------------------------------------------
$rem
   JOBTYPE  sp
   EXCHANGE   omegaB97X-D
   BASIS   6-311+G(2df,2pd)
   UNRESTRICTED   False
   max_scf_cycles   250
   geom_opt_max_cycles   1500
   basis2 6-31G*
   scf_algorithm rca_diis
   SYM_IGNORE  TRUE
   print_input   true
   geom_opt_dmax   80
   pop_mulliken false
   XC_GRID 000075000302
$end

$molecule
0 1
C       -5.3217654121     0.3603343480     0.0392626058
C       -4.0878940793     1.1981475062     0.1170683865
H       -5.5821143678     -0.1100973109     -0.9132485905
H       -6.2952287238     0.8223561833     0.2289736717
H       -5.4018525457     -0.5122263536     0.6956327487
O       -2.9203907972     0.4826558603     -0.2128880246
H       -4.0037827588     1.6084678564     1.1280104824
H       -4.2556638175     2.0398441496     -0.5547326576
H       -2.7341174976     -0.2722622395     0.3422313777
$end
--------------------------------------------------------------

             Standard Nuclear Orientation (Angstroms)
    I     Atom           X                Y                Z
 ----------------------------------------------------------------
    1      C      -5.3217654121     0.3603343480     0.0392626058
    2      C      -4.0878940793     1.1981475062     0.1170683865
    3      H      -5.5821143678    -0.1100973109    -0.9132485905
    4      H      -6.2952287238     0.8223561833     0.2289736717
    5      H      -5.4018525457    -0.5122263536     0.6956327487
    6      O      -2.9203907972     0.4826558603    -0.2128880246
    7      H      -4.0037827588     1.6084678564     1.1280104824
    8      H      -4.2556638175     2.0398441496    -0.5547326576
    9      H      -2.7341174976    -0.2722622395     0.3422313777
 ----------------------------------------------------------------

    6    -154.9698716243      8.99E-05 Convergence criterion met
    6    -155.0392514531      6.11E-06 Convergence criterion met
 Total energy in the final basis set = -155.03925145

                    Orbital Energies (a.u.)
 --------------------------------------------------------------

 Alpha MOs
 -- Occupied --
-19.2460 -10.3321 -10.2702  -1.1260  -0.8534  -0.7314  -0.6021  -0.5505
 -0.5315  -0.4580  -0.4474  -0.4041  -0.3654

                    Cartesian Multipole Moments
 -----------------------------------------------------------------
    Charge (ESU x 10^10)
                 0.0000
    Dipole Moment (Debye)
         X      -1.1343      Y      -0.4667      Z       1.1765
       Tot       1.6996
    Quadrupole Moments (Debye-Ang)
        XX     -11.7240     XY      -0.3255     YY     -18.8410
        XZ      -2.7773     YZ      -0.3470     ZZ     -20.2653

 Total job time:  10.81s(wall), 55.58s(cpu)
        *  Thank you very much for using Q-Chem.  Have a nice day.  *
