 Q-Chem 5.3 (devel), Q-Chem, Inc., Pleasanton, CA (2020)
 Q-Chem 5.3.0 for Intel X86 EM64T Linux

User input:
--------------------------------------------------------------
$rem
   JOBTYPE  sp
   EXCHANGE   omegaB97X-D
   BASIS   6-311+G(2df,2pd)
   UNRESTRICTED   False
   max_scf_cycles   250
   geom_opt_max_cycles   1500
   basis2 6-31G*
   scf_algorithm rca_diis
   SYM_IGNORE  TRUE
   print_input   true
   geom_opt_dmax   80
   pop_mulliken false
   XC_GRID 000075000302
$end

$molecule
0 1
C       -5.3551128605     0.2929295922     0.0548456166
C       -4.1336010414     1.1995285806     0.0904891522
H       -5.4919749621     -0.1439535917     -1.0273122340
H       -6.3425750609     0.9278890506     0.3205314592
H       -5.2953967292     -0.4258357853     0.6662258551
O       -2.9470660781     0.5065007294     -0.2617027727
H       -4.0207558041     1.6463106742     1.1429588449
H       -4.2043819877     1.8385623347     -0.4503047503
H       -2.8119454759     -0.2247115845     0.3345788291
$end
--------------------------------------------------------------

             Standard Nuclear Orientation (Angstroms)
    I     Atom           X                Y                Z
 ----------------------------------------------------------------
    1      C      -5.3551128605     0.2929295922     0.0548456166
    2      C      -4.1336010414     1.1995285806     0.0904891522
    3      H      -5.4919749621    -0.1439535917    -1.0273122340
    4      H      -6.3425750609     0.9278890506     0.3205314592
    5      H      -5.2953967292    -0.4258357853     0.6662258551
    6      O      -2.9470660781     0.5065007294    -0.2617027727
    7      H      -4.0207558041     1.6463106742     1.1429588449
    8      H      -4.2043819877     1.8385623347    -0.4503047503
    9      H      -2.8119454759    -0.2247115845     0.3345788291
 ----------------------------------------------------------------

    7    -154.8856058936      8.13E-06 Convergence criterion met
    6    -154.9587824539      6.13E-06 Convergence criterion met
 Total energy in the final basis set = -154.95878245

                    Orbital Energies (a.u.)
 --------------------------------------------------------------

 Alpha MOs
 -- Occupied --
-19.2456 -10.3065 -10.2780  -1.1265  -0.8603  -0.7502  -0.5900  -0.5662
 -0.5217  -0.4758  -0.4574  -0.4164  -0.3606

                    Cartesian Multipole Moments
 -----------------------------------------------------------------
    Charge (ESU x 10^10)
                 0.0000
    Dipole Moment (Debye)
         X      -1.0809      Y      -0.4241      Z       1.2400
       Tot       1.6987
    Quadrupole Moments (Debye-Ang)
        XX     -12.9654     XY      -0.5151     YY     -18.7434
        XZ      -3.2892     YZ      -0.3732     ZZ     -19.9456

 Total job time:  11.18s(wall), 57.53s(cpu)
        *  Thank you very much for using Q-Chem.  Have a nice day.  *
