 Q-Chem 5.3 (devel), Q-Chem, Inc., Pleasanton, CA (2020)
 Q-Chem 5.3.0 for Intel X86 EM64T Linux

User input:
--------------------------------------------------------------
$rem
   JOBTYPE  sp
   EXCHANGE   omegaB97X-D
   BASIS   6-311+G(2df,2pd)
   UNRESTRICTED   False
   max_scf_cycles   250
   geom_opt_max_cycles   1500
   basis2 6-31G*
   scf_algorithm rca_diis
   SYM_IGNORE  TRUE
   print_input   true
   geom_opt_dmax   80
   pop_mulliken false
   XC_GRID 000075000302
$end

$molecule
0 1
C       -5.4034761585     0.2806114378     0.0145908115
C       -4.1931090807     1.1880154803     0.1230805746
H       -5.4980806207     -0.0900900806     -1.0048019873
H       -6.2641813780     0.9114091355     0.2431458594
H       -5.3180542350     -0.5097890365     0.7580340161
O       -2.9837516271     0.4827865181     -0.1749147696
H       -3.9084291134     1.5814093497     1.1017022199
H       -4.2911479745     2.0436255629     -0.5488871501
H       -2.7425798120     -0.2707583672     0.3583604257
$end
--------------------------------------------------------------

             Standard Nuclear Orientation (Angstroms)
    I     Atom           X                Y                Z
 ----------------------------------------------------------------
    1      C      -5.4034761585     0.2806114378     0.0145908115
    2      C      -4.1931090807     1.1880154803     0.1230805746
    3      H      -5.4980806207    -0.0900900806    -1.0048019873
    4      H      -6.2641813780     0.9114091355     0.2431458594
    5      H      -5.3180542350    -0.5097890365     0.7580340161
    6      O      -2.9837516271     0.4827865181    -0.1749147696
    7      H      -3.9084291134     1.5814093497     1.1017022199
    8      H      -4.2911479745     2.0436255629    -0.5488871501
    9      H      -2.7425798120    -0.2707583672     0.3583604257
 ----------------------------------------------------------------

    6    -154.9693429893      7.50E-05 Convergence criterion met
    6    -155.0394634833      6.45E-06 Convergence criterion met
 Total energy in the final basis set = -155.03946348

                    Orbital Energies (a.u.)
 --------------------------------------------------------------

 Alpha MOs
 -- Occupied --
-19.2337 -10.3288 -10.2760  -1.1121  -0.8517  -0.7260  -0.5847  -0.5560
 -0.5169  -0.4761  -0.4604  -0.3919  -0.3549

                    Cartesian Multipole Moments
 -----------------------------------------------------------------
    Charge (ESU x 10^10)
                 0.0000
    Dipole Moment (Debye)
         X      -1.1163      Y      -0.3909      Z       1.1525
       Tot       1.6514
    Quadrupole Moments (Debye-Ang)
        XX     -12.2850     XY      -0.9562     YY     -18.7464
        XZ      -2.5847     YZ      -0.4252     ZZ     -19.8534

 Total job time:  11.09s(wall), 56.87s(cpu)
        *  Thank you very much for using Q-Chem.  Have a nice day.  *
