 Q-Chem 5.3 (devel), Q-Chem, Inc., Pleasanton, CA (2020)
 Q-Chem 5.3.0 for Intel X86 EM64T Linux

User input:
--------------------------------------------------------------
$rem
   JOBTYPE  sp
   EXCHANGE   omegaB97X-D
   BASIS   6-311+G(2df,2pd)
   UNRESTRICTED   False
   max_scf_cycles   250
   geom_opt_max_cycles   1500
   basis2 6-31G*
   scf_algorithm rca_diis
   SYM_IGNORE  TRUE
   print_input   true
   geom_opt_dmax   80
   pop_mulliken false
   XC_GRID 000075000302
$end

$molecule
0 1
C       -5.2797003729     0.2783966570     0.0114466649
C       -4.1553445964     1.1094624089     0.1093313498
H       -5.5281065861     -0.0872872827     -0.9825365874
H       -6.0174605233     1.0310940829     0.3006052207
H       -5.3370534812     -0.5263454211     0.7453817060
O       -3.0037202160     0.5340151210     -0.2214835616
H       -4.1529492523     1.5346369335     1.1242852101
H       -4.3057309964     1.9530663106     -0.5668125023
H       -2.8227439753     -0.2098188100     0.3500924999
$end
--------------------------------------------------------------

             Standard Nuclear Orientation (Angstroms)
    I     Atom           X                Y                Z
 ----------------------------------------------------------------
    1      C      -5.2797003729     0.2783966570     0.0114466649
    2      C      -4.1553445964     1.1094624089     0.1093313498
    3      H      -5.5281065861    -0.0872872827    -0.9825365874
    4      H      -6.0174605233     1.0310940829     0.3006052207
    5      H      -5.3370534812    -0.5263454211     0.7453817060
    6      O      -3.0037202160     0.5340151210    -0.2214835616
    7      H      -4.1529492523     1.5346369335     1.1242852101
    8      H      -4.3057309964     1.9530663106    -0.5668125023
    9      H      -2.8227439753    -0.2098188100     0.3500924999
 ----------------------------------------------------------------

    6    -154.9588913644      7.19E-05 Convergence criterion met
    6    -155.0290748916      6.42E-06 Convergence criterion met
 Total energy in the final basis set = -155.02907489

                    Orbital Energies (a.u.)
 --------------------------------------------------------------

 Alpha MOs
 -- Occupied --
-19.2429 -10.3119 -10.2616  -1.1550  -0.8754  -0.7203  -0.6149  -0.5661
 -0.5359  -0.4774  -0.4508  -0.3992  -0.3583

                    Cartesian Multipole Moments
 -----------------------------------------------------------------
    Charge (ESU x 10^10)
                -0.0000
    Dipole Moment (Debye)
         X      -0.9354      Y      -0.5830      Z       1.1476
       Tot       1.5912
    Quadrupole Moments (Debye-Ang)
        XX     -14.0706     XY      -0.0193     YY     -19.2859
        XZ      -2.8733     YZ      -0.3318     ZZ     -19.8121

 Total job time:  11.16s(wall), 57.27s(cpu)
        *  Thank you very much for using Q-Chem.  Have a nice day.  *
