 Q-Chem 5.3 (devel), Q-Chem, Inc., Pleasanton, CA (2020)
 Q-Chem 5.3.0 for Intel X86 EM64T Linux

User input:
--------------------------------------------------------------
$rem
   JOBTYPE  sp
   EXCHANGE   omegaB97X-D
   BASIS   6-311+G(2df,2pd)
   UNRESTRICTED   False
   max_scf_cycles   250
   geom_opt_max_cycles   1500
   basis2 6-31G*
   scf_algorithm rca_diis
   SYM_IGNORE  TRUE
   print_input   true
   geom_opt_dmax   80
   pop_mulliken false
   XC_GRID 000075000302
$end

$molecule
0 1
C       -5.3825924444     0.3218216885     0.0870078814
C       -4.1336660208     1.1793826218     0.1477818284
H       -5.5259614678     -0.1432710306     -1.0855435858
H       -6.2010336842     0.8553490849     0.3141190194
H       -5.3193431441     -0.4766415817     0.7355283159
O       -2.9603571901     0.4863962098     -0.2335796767
H       -4.0287902082     1.5945234126     1.1252445086
H       -4.2160498016     2.0528400237     -0.5819249185
H       -2.8350160387     -0.2531804290     0.3616766275
$end
--------------------------------------------------------------

             Standard Nuclear Orientation (Angstroms)
    I     Atom           X                Y                Z
 ----------------------------------------------------------------
    1      C      -5.3825924444     0.3218216885     0.0870078814
    2      C      -4.1336660208     1.1793826218     0.1477818284
    3      H      -5.5259614678    -0.1432710306    -1.0855435858
    4      H      -6.2010336842     0.8553490849     0.3141190194
    5      H      -5.3193431441    -0.4766415817     0.7355283159
    6      O      -2.9603571901     0.4863962098    -0.2335796767
    7      H      -4.0287902082     1.5945234126     1.1252445086
    8      H      -4.2160498016     2.0528400237    -0.5819249185
    9      H      -2.8350160387    -0.2531804290     0.3616766275
 ----------------------------------------------------------------

    7    -154.9578421216      7.60E-06 Convergence criterion met
    6    -155.0268163971      5.58E-06 Convergence criterion met
 Total energy in the final basis set = -155.02681640

                    Orbital Energies (a.u.)
 --------------------------------------------------------------

 Alpha MOs
 -- Occupied --
-19.2466 -10.3303 -10.2755  -1.1263  -0.8526  -0.7234  -0.5960  -0.5494
 -0.5292  -0.4677  -0.4487  -0.4084  -0.3638

                    Cartesian Multipole Moments
 -----------------------------------------------------------------
    Charge (ESU x 10^10)
                -0.0000
    Dipole Moment (Debye)
         X      -1.1562      Y      -0.3761      Z       1.4599
       Tot       1.8999
    Quadrupole Moments (Debye-Ang)
        XX     -12.2414     XY      -0.8327     YY     -18.9870
        XZ      -4.4188     YZ      -0.1932     ZZ     -19.8499

 Total job time:  11.11s(wall), 57.12s(cpu)
        *  Thank you very much for using Q-Chem.  Have a nice day.  *
