 Q-Chem 5.3 (devel), Q-Chem, Inc., Pleasanton, CA (2020)
 Q-Chem 5.3.0 for Intel X86 EM64T Linux

User input:
--------------------------------------------------------------
$rem
   JOBTYPE  sp
   EXCHANGE   omegaB97X-D
   BASIS   6-311+G(2df,2pd)
   UNRESTRICTED   False
   max_scf_cycles   250
   geom_opt_max_cycles   1500
   basis2 6-31G*
   scf_algorithm rca_diis
   SYM_IGNORE  TRUE
   print_input   true
   geom_opt_dmax   80
   pop_mulliken false
   XC_GRID 000075000302
$end

$molecule
0 1
C       -5.3815022092     0.3264904888     0.0599502120
C       -4.1267031277     1.1690373986     0.0986411795
H       -5.4423345144     -0.0724976320     -0.9540588995
H       -6.3004368051     0.8712952839     0.2727188207
H       -5.3053826706     -0.5321055609     0.7310259576
O       -2.9676729513     0.4995685752     -0.2406880147
H       -3.9881857357     1.5678536193     1.1105118165
H       -4.2206369146     2.0240502969     -0.5705575083
H       -2.8699550712     -0.2364724697     0.3627664364
$end
--------------------------------------------------------------

             Standard Nuclear Orientation (Angstroms)
    I     Atom           X                Y                Z
 ----------------------------------------------------------------
    1      C      -5.3815022092     0.3264904888     0.0599502120
    2      C      -4.1267031277     1.1690373986     0.0986411795
    3      H      -5.4423345144    -0.0724976320    -0.9540588995
    4      H      -6.3004368051     0.8712952839     0.2727188207
    5      H      -5.3053826706    -0.5321055609     0.7310259576
    6      O      -2.9676729513     0.4995685752    -0.2406880147
    7      H      -3.9881857357     1.5678536193     1.1105118165
    8      H      -4.2206369146     2.0240502969    -0.5705575083
    9      H      -2.8699550712    -0.2364724697     0.3627664364
 ----------------------------------------------------------------

    6    -154.9800127959      9.45E-05 Convergence criterion met
    6    -155.0482894258      5.39E-06 Convergence criterion met
 Total energy in the final basis set = -155.04828943

                    Orbital Energies (a.u.)
 --------------------------------------------------------------

 Alpha MOs
 -- Occupied --
-19.2480 -10.3238 -10.2733  -1.1395  -0.8494  -0.7243  -0.5996  -0.5499
 -0.5317  -0.4645  -0.4627  -0.4124  -0.3594

                    Cartesian Multipole Moments
 -----------------------------------------------------------------
    Charge (ESU x 10^10)
                 0.0000
    Dipole Moment (Debye)
         X      -1.1154      Y      -0.4663      Z       1.1942
       Tot       1.6993
    Quadrupole Moments (Debye-Ang)
        XX     -12.4346     XY      -0.3785     YY     -19.1460
        XZ      -3.1009     YZ      -0.5023     ZZ     -20.0474

 Total job time:  10.96s(wall), 56.41s(cpu)
        *  Thank you very much for using Q-Chem.  Have a nice day.  *
