 Q-Chem 5.3 (devel), Q-Chem, Inc., Pleasanton, CA (2020)
 Q-Chem 5.3.0 for Intel X86 EM64T Linux

User input:
--------------------------------------------------------------
$rem
   JOBTYPE  sp
   EXCHANGE   omegaB97X-D
   BASIS   6-311+G(2df,2pd)
   UNRESTRICTED   False
   max_scf_cycles   250
   geom_opt_max_cycles   1500
   basis2 6-31G*
   scf_algorithm rca_diis
   SYM_IGNORE  TRUE
   print_input   true
   geom_opt_dmax   80
   pop_mulliken false
   XC_GRID 000075000302
$end

$molecule
0 1
C       -5.3821524329     0.3026687681     0.0385506870
C       -4.1379392653     1.1772264628     0.1236734637
H       -5.4905185570     -0.0763835975     -0.9212973929
H       -6.2238469691     0.8506634874     0.2764428107
H       -5.3212185035     -0.4809306548     0.6902443510
O       -2.9573774734     0.4886138274     -0.2435739460
H       -4.0409420217     1.5971194359     1.1244544924
H       -4.2150823549     2.0097790866     -0.5680290073
H       -2.8337324222     -0.2515368159     0.3498445415
$end
--------------------------------------------------------------

             Standard Nuclear Orientation (Angstroms)
    I     Atom           X                Y                Z
 ----------------------------------------------------------------
    1      C      -5.3821524329     0.3026687681     0.0385506870
    2      C      -4.1379392653     1.1772264628     0.1236734637
    3      H      -5.4905185570    -0.0763835975    -0.9212973929
    4      H      -6.2238469691     0.8506634874     0.2764428107
    5      H      -5.3212185035    -0.4809306548     0.6902443510
    6      O      -2.9573774734     0.4886138274    -0.2435739460
    7      H      -4.0409420217     1.5971194359     1.1244544924
    8      H      -4.2150823549     2.0097790866    -0.5680290073
    9      H      -2.8337324222    -0.2515368159     0.3498445415
 ----------------------------------------------------------------

    7    -154.9734977663      7.53E-06 Convergence criterion met
    6    -155.0431500990      5.54E-06 Convergence criterion met
 Total energy in the final basis set = -155.04315010

                    Orbital Energies (a.u.)
 --------------------------------------------------------------

 Alpha MOs
 -- Occupied --
-19.2452 -10.3248 -10.2537  -1.1252  -0.8568  -0.7304  -0.5971  -0.5493
 -0.5269  -0.4755  -0.4661  -0.4128  -0.3615

                    Cartesian Multipole Moments
 -----------------------------------------------------------------
    Charge (ESU x 10^10)
                -0.0000
    Dipole Moment (Debye)
         X      -1.2211      Y      -0.4505      Z       1.2599
       Tot       1.8115
    Quadrupole Moments (Debye-Ang)
        XX     -11.4792     XY      -0.4675     YY     -18.8245
        XZ      -3.3531     YZ      -0.2994     ZZ     -19.7949

 Total job time:  11.20s(wall), 57.70s(cpu)
        *  Thank you very much for using Q-Chem.  Have a nice day.  *
