 Q-Chem 5.3 (devel), Q-Chem, Inc., Pleasanton, CA (2020)
 Q-Chem 5.3.0 for Intel X86 EM64T Linux

User input:
--------------------------------------------------------------
$rem
   JOBTYPE  sp
   EXCHANGE   omegaB97X-D
   BASIS   6-311+G(2df,2pd)
   UNRESTRICTED   False
   max_scf_cycles   250
   geom_opt_max_cycles   1500
   basis2 6-31G*
   scf_algorithm rca_diis
   SYM_IGNORE  TRUE
   print_input   true
   geom_opt_dmax   80
   pop_mulliken false
   XC_GRID 000075000302
$end

$molecule
0 1
C       -5.3592057665     0.2746464985     0.0386079862
C       -4.1103708799     1.1935899628     0.1100945680
H       -5.5067729599     -0.1028107577     -0.9735296228
H       -6.2250736851     0.8965922943     0.2781950715
H       -5.3579820151     -0.5678201952     0.7332283583
O       -2.9381087170     0.4989948177     -0.2543294864
H       -3.9908231366     1.5989671760     1.1222234282
H       -4.2320911960     2.0443398204     -0.5604536068
H       -2.8823816439     -0.2192796168     0.3762733039
$end
--------------------------------------------------------------

             Standard Nuclear Orientation (Angstroms)
    I     Atom           X                Y                Z
 ----------------------------------------------------------------
    1      C      -5.3592057665     0.2746464985     0.0386079862
    2      C      -4.1103708799     1.1935899628     0.1100945680
    3      H      -5.5067729599    -0.1028107577    -0.9735296228
    4      H      -6.2250736851     0.8965922943     0.2781950715
    5      H      -5.3579820151    -0.5678201952     0.7332283583
    6      O      -2.9381087170     0.4989948177    -0.2543294864
    7      H      -3.9908231366     1.5989671760     1.1222234282
    8      H      -4.2320911960     2.0443398204    -0.5604536068
    9      H      -2.8823816439    -0.2192796168     0.3762733039
 ----------------------------------------------------------------

    6    -154.9806381011      9.44E-05 Convergence criterion met
    6    -155.0485742088      5.64E-06 Convergence criterion met
 Total energy in the final basis set = -155.04857421

                    Orbital Energies (a.u.)
 --------------------------------------------------------------

 Alpha MOs
 -- Occupied --
-19.2468 -10.3305 -10.2768  -1.1299  -0.8430  -0.7232  -0.5951  -0.5431
 -0.5219  -0.4709  -0.4619  -0.4153  -0.3598

                    Cartesian Multipole Moments
 -----------------------------------------------------------------
    Charge (ESU x 10^10)
                 0.0000
    Dipole Moment (Debye)
         X      -1.2429      Y      -0.3482      Z       1.2643
       Tot       1.8068
    Quadrupole Moments (Debye-Ang)
        XX     -11.9114     XY      -0.6967     YY     -18.7889
        XZ      -3.2636     YZ      -0.3795     ZZ     -19.9152

 Total job time:  10.85s(wall), 55.70s(cpu)
        *  Thank you very much for using Q-Chem.  Have a nice day.  *
