 Q-Chem 5.3 (devel), Q-Chem, Inc., Pleasanton, CA (2020)
 Q-Chem 5.3.0 for Intel X86 EM64T Linux

User input:
--------------------------------------------------------------
$rem
   JOBTYPE  sp
   EXCHANGE   omegaB97X-D
   BASIS   6-311+G(2df,2pd)
   UNRESTRICTED   False
   max_scf_cycles   250
   geom_opt_max_cycles   1500
   basis2 6-31G*
   scf_algorithm rca_diis
   SYM_IGNORE  TRUE
   print_input   true
   geom_opt_dmax   80
   pop_mulliken false
   XC_GRID 000075000302
$end

$molecule
0 1
C       -5.3783545875     0.3160940947     0.0615470018
C       -4.1333569789     1.1795643862     0.1351860642
H       -5.5081820286     -0.1163465086     -1.0283329537
H       -6.2332482237     0.8713559979     0.3006178378
H       -5.3161138429     -0.5028733623     0.7339060728
O       -2.9565778596     0.4883565754     -0.2387882276
H       -4.0319087134     1.5982723426     1.1272956126
H       -4.2124876935     2.0346088529     -0.5767377585
H       -2.8325800717     -0.2518123788     0.3556163507
$end
--------------------------------------------------------------

             Standard Nuclear Orientation (Angstroms)
    I     Atom           X                Y                Z
 ----------------------------------------------------------------
    1      C      -5.3783545875     0.3160940947     0.0615470018
    2      C      -4.1333569789     1.1795643862     0.1351860642
    3      H      -5.5081820286    -0.1163465086    -1.0283329537
    4      H      -6.2332482237     0.8713559979     0.3006178378
    5      H      -5.3161138429    -0.5028733623     0.7339060728
    6      O      -2.9565778596     0.4883565754    -0.2387882276
    7      H      -4.0319087134     1.5982723426     1.1272956126
    8      H      -4.2124876935     2.0346088529    -0.5767377585
    9      H      -2.8325800717    -0.2518123788     0.3556163507
 ----------------------------------------------------------------

    7    -154.9760599451      7.46E-06 Convergence criterion met
    6    -155.0444475775      5.59E-06 Convergence criterion met
 Total energy in the final basis set = -155.04444758

                    Orbital Energies (a.u.)
 --------------------------------------------------------------

 Alpha MOs
 -- Occupied --
-19.2463 -10.3287 -10.2753  -1.1261  -0.8502  -0.7222  -0.5956  -0.5463
 -0.5265  -0.4637  -0.4583  -0.4105  -0.3631

                    Cartesian Multipole Moments
 -----------------------------------------------------------------
    Charge (ESU x 10^10)
                -0.0000
    Dipole Moment (Debye)
         X      -1.1728      Y      -0.3991      Z       1.3449
       Tot       1.8285
    Quadrupole Moments (Debye-Ang)
        XX     -12.0954     XY      -0.7215     YY     -18.9680
        XZ      -3.8011     YZ      -0.2473     ZZ     -19.8942

 Total job time:  11.12s(wall), 57.55s(cpu)
        *  Thank you very much for using Q-Chem.  Have a nice day.  *
