 Q-Chem 5.3 (devel), Q-Chem, Inc., Pleasanton, CA (2020)
 Q-Chem 5.3.0 for Intel X86 EM64T Linux

User input:
--------------------------------------------------------------
$rem
   JOBTYPE  sp
   EXCHANGE   omegaB97X-D
   BASIS   6-311+G(2df,2pd)
   UNRESTRICTED   False
   max_scf_cycles   250
   geom_opt_max_cycles   1500
   basis2 6-31G*
   scf_algorithm rca_diis
   SYM_IGNORE  TRUE
   print_input   true
   geom_opt_dmax   80
   pop_mulliken false
   XC_GRID 000075000302
$end

$molecule
0 1
C       -5.3397349093     0.3416909364     0.0259242737
C       -4.1122320321     1.1904127913     0.1181557018
H       -5.4926860209     -0.1420050764     -1.1695691747
H       -6.4317715045     1.0310427622     0.3299458180
H       -5.2840627608     -0.7213967858     0.8999702578
O       -2.9333571778     0.4979205603     -0.2455904102
H       -4.0110289626     1.6217288485     1.1489601406
H       -4.1833008116     2.0431789690     -0.5858495116
H       -2.8146358204     -0.2453530055     0.3483629046
$end
--------------------------------------------------------------

             Standard Nuclear Orientation (Angstroms)
    I     Atom           X                Y                Z
 ----------------------------------------------------------------
    1      C      -5.3397349093     0.3416909364     0.0259242737
    2      C      -4.1122320321     1.1904127913     0.1181557018
    3      H      -5.4926860209    -0.1420050764    -1.1695691747
    4      H      -6.4317715045     1.0310427622     0.3299458180
    5      H      -5.2840627608    -0.7213967858     0.8999702578
    6      O      -2.9333571778     0.4979205603    -0.2455904102
    7      H      -4.0110289626     1.6217288485     1.1489601406
    8      H      -4.1833008116     2.0431789690    -0.5858495116
    9      H      -2.8146358204    -0.2453530055     0.3483629046
 ----------------------------------------------------------------

    6    -154.9120674403      5.95E-05 Convergence criterion met
    6    -154.9786691042      8.70E-06 Convergence criterion met
 Total energy in the final basis set = -154.97866910

                    Orbital Energies (a.u.)
 --------------------------------------------------------------

 Alpha MOs
 -- Occupied --
-19.2515 -10.3438 -10.3392  -1.1309  -0.8390  -0.6965  -0.5936  -0.5385
 -0.5144  -0.4513  -0.4262  -0.4039  -0.3678

                    Cartesian Multipole Moments
 -----------------------------------------------------------------
    Charge (ESU x 10^10)
                 0.0000
    Dipole Moment (Debye)
         X      -0.9359      Y      -0.2108      Z       1.1439
       Tot       1.4930
    Quadrupole Moments (Debye-Ang)
        XX     -14.9005     XY      -1.5808     YY     -19.2763
        XZ      -2.7241     YZ      -0.2725     ZZ     -20.4155

 Total job time:  10.74s(wall), 54.92s(cpu)
        *  Thank you very much for using Q-Chem.  Have a nice day.  *
