 Q-Chem 5.3 (devel), Q-Chem, Inc., Pleasanton, CA (2020)
 Q-Chem 5.3.0 for Intel X86 EM64T Linux

User input:
--------------------------------------------------------------
$rem
   JOBTYPE  sp
   EXCHANGE   omegaB97X-D
   BASIS   6-311+G(2df,2pd)
   UNRESTRICTED   False
   max_scf_cycles   250
   geom_opt_max_cycles   1500
   basis2 6-31G*
   scf_algorithm rca_diis
   SYM_IGNORE  TRUE
   print_input   true
   geom_opt_dmax   80
   pop_mulliken false
   XC_GRID 000075000302
$end

$molecule
0 1
C       -5.3289481091     0.3542001593     0.0734149216
C       -4.0394222842     1.1548843284     0.1336898316
H       -5.4832273245     -0.0738683053     -0.9186307997
H       -6.2515562437     0.8578145247     0.3646116404
H       -5.3162221286     -0.5581475379     0.6842334877
O       -2.9056771360     0.4979100618     -0.3324862181
H       -4.2343235224     1.6108494843     1.1172884778
H       -4.0883723054     1.9620386378     -0.5909659036
H       -2.9550609460     -0.1884613531     0.3391545624
$end
--------------------------------------------------------------

             Standard Nuclear Orientation (Angstroms)
    I     Atom           X                Y                Z
 ----------------------------------------------------------------
    1      C      -5.3289481091     0.3542001593     0.0734149216
    2      C      -4.0394222842     1.1548843284     0.1336898316
    3      H      -5.4832273245    -0.0738683053    -0.9186307997
    4      H      -6.2515562437     0.8578145247     0.3646116404
    5      H      -5.3162221286    -0.5581475379     0.6842334877
    6      O      -2.9056771360     0.4979100618    -0.3324862181
    7      H      -4.2343235224     1.6108494843     1.1172884778
    8      H      -4.0883723054     1.9620386378    -0.5909659036
    9      H      -2.9550609460    -0.1884613531     0.3391545624
 ----------------------------------------------------------------

    7    -154.9555160749      8.98E-06 Convergence criterion met
    6    -155.0229408990      5.20E-06 Convergence criterion met
 Total energy in the final basis set = -155.02294090

                    Orbital Energies (a.u.)
 --------------------------------------------------------------

 Alpha MOs
 -- Occupied --
-19.2638 -10.3280 -10.2737  -1.1525  -0.8518  -0.7200  -0.6141  -0.5469
 -0.5206  -0.4726  -0.4603  -0.4170  -0.3650

                    Cartesian Multipole Moments
 -----------------------------------------------------------------
    Charge (ESU x 10^10)
                 0.0000
    Dipole Moment (Debye)
         X      -1.2526      Y      -0.4496      Z       1.3098
       Tot       1.8672
    Quadrupole Moments (Debye-Ang)
        XX     -11.6249     XY      -0.1544     YY     -19.5026
        XZ      -4.0933     YZ      -0.1651     ZZ     -20.2152

 Total job time:  11.22s(wall), 57.62s(cpu)
        *  Thank you very much for using Q-Chem.  Have a nice day.  *
