 Q-Chem 5.3 (devel), Q-Chem, Inc., Pleasanton, CA (2020)
 Q-Chem 5.3.0 for Intel X86 EM64T Linux

User input:
--------------------------------------------------------------
$rem
   JOBTYPE  sp
   EXCHANGE   omegaB97X-D
   BASIS   6-311+G(2df,2pd)
   UNRESTRICTED   False
   max_scf_cycles   250
   geom_opt_max_cycles   1500
   basis2 6-31G*
   scf_algorithm rca_diis
   SYM_IGNORE  TRUE
   print_input   true
   geom_opt_dmax   80
   pop_mulliken false
   XC_GRID 000075000302
$end

$molecule
0 1
C       -5.3466813424     0.2689322509     -0.0388991441
C       -4.1590304786     1.2116573936     0.1976027641
H       -5.6173406439     -0.1396133807     -1.0072635384
H       -6.1462964450     0.9225713018     0.3292597827
H       -5.3322837063     -0.5016539360     0.7346146734
O       -2.9199897694     0.4614831302     -0.2565600202
H       -4.1873758053     1.6991554081     1.1778421941
H       -4.1681409098     1.9883798451     -0.5663659960
H       -2.7256708992     -0.2936920129     0.3000792845
$end
--------------------------------------------------------------

             Standard Nuclear Orientation (Angstroms)
    I     Atom           X                Y                Z
 ----------------------------------------------------------------
    1      C      -5.3466813424     0.2689322509    -0.0388991441
    2      C      -4.1590304786     1.2116573936     0.1976027641
    3      H      -5.6173406439    -0.1396133807    -1.0072635384
    4      H      -6.1462964450     0.9225713018     0.3292597827
    5      H      -5.3322837063    -0.5016539360     0.7346146734
    6      O      -2.9199897694     0.4614831302    -0.2565600202
    7      H      -4.1873758053     1.6991554081     1.1778421941
    8      H      -4.1681409098     1.9883798451    -0.5663659960
    9      H      -2.7256708992    -0.2936920129     0.3000792845
 ----------------------------------------------------------------

    6    -154.9605298598      9.67E-05 Convergence criterion met
    6    -155.0299110611      7.25E-06 Convergence criterion met
 Total energy in the final basis set = -155.02991106

                    Orbital Energies (a.u.)
 --------------------------------------------------------------

 Alpha MOs
 -- Occupied --
-19.2401 -10.3399 -10.2781  -1.0926  -0.8543  -0.7214  -0.5907  -0.5321
 -0.5027  -0.4867  -0.4423  -0.4109  -0.3599

                    Cartesian Multipole Moments
 -----------------------------------------------------------------
    Charge (ESU x 10^10)
                -0.0000
    Dipole Moment (Debye)
         X      -1.3696      Y      -0.2570      Z       1.3645
       Tot       1.9503
    Quadrupole Moments (Debye-Ang)
        XX     -10.8432     XY      -1.4342     YY     -18.4146
        XZ      -3.7108     YZ       0.3281     ZZ     -19.6666

 Total job time:  10.73s(wall), 55.35s(cpu)
        *  Thank you very much for using Q-Chem.  Have a nice day.  *
