 Q-Chem 5.3 (devel), Q-Chem, Inc., Pleasanton, CA (2020)
 Q-Chem 5.3.0 for Intel X86 EM64T Linux

User input:
--------------------------------------------------------------
$rem
   JOBTYPE  sp
   EXCHANGE   omegaB97X-D
   BASIS   6-311+G(2df,2pd)
   UNRESTRICTED   False
   max_scf_cycles   250
   geom_opt_max_cycles   1500
   basis2 6-31G*
   scf_algorithm rca_diis
   SYM_IGNORE  TRUE
   print_input   true
   geom_opt_dmax   80
   pop_mulliken false
   XC_GRID 000075000302
$end

$molecule
0 1
C       -5.4338216504     0.2523749181     0.0298207762
C       -4.1870744595     1.1542843175     0.1255996030
H       -5.3857133891     -0.0524047321     -1.0113585948
H       -6.2085437604     0.9501030892     0.3408916592
H       -5.2101151015     -0.5231876726     0.7619586364
O       -2.9931138191     0.4943087591     -0.2746628763
H       -4.0786468973     1.5882956151     1.1282417313
H       -4.1709737410     1.9805815796     -0.5844129481
H       -2.9348071816     -0.2271358740     0.3542320131
$end
--------------------------------------------------------------

             Standard Nuclear Orientation (Angstroms)
    I     Atom           X                Y                Z
 ----------------------------------------------------------------
    1      C      -5.4338216504     0.2523749181     0.0298207762
    2      C      -4.1870744595     1.1542843175     0.1255996030
    3      H      -5.3857133891    -0.0524047321    -1.0113585948
    4      H      -6.2085437604     0.9501030892     0.3408916592
    5      H      -5.2101151015    -0.5231876726     0.7619586364
    6      O      -2.9931138191     0.4943087591    -0.2746628763
    7      H      -4.0786468973     1.5882956151     1.1282417313
    8      H      -4.1709737410     1.9805815796    -0.5844129481
    9      H      -2.9348071816    -0.2271358740     0.3542320131
 ----------------------------------------------------------------

    7    -154.9689260185      7.68E-06 Convergence criterion met
    6    -155.0373282454      5.63E-06 Convergence criterion met
 Total energy in the final basis set = -155.03732825

                    Orbital Energies (a.u.)
 --------------------------------------------------------------

 Alpha MOs
 -- Occupied --
-19.2471 -10.3248 -10.2796  -1.1280  -0.8519  -0.7172  -0.5972  -0.5446
 -0.5208  -0.4716  -0.4624  -0.4164  -0.3596

                    Cartesian Multipole Moments
 -----------------------------------------------------------------
    Charge (ESU x 10^10)
                 0.0000
    Dipole Moment (Debye)
         X      -1.1464      Y      -0.3128      Z       1.3022
       Tot       1.7629
    Quadrupole Moments (Debye-Ang)
        XX     -13.1187     XY      -1.1929     YY     -19.1368
        XZ      -3.7392     YZ      -0.2402     ZZ     -19.6755

 Total job time:  11.23s(wall), 57.77s(cpu)
        *  Thank you very much for using Q-Chem.  Have a nice day.  *
