 Q-Chem 5.3 (devel), Q-Chem, Inc., Pleasanton, CA (2020)
 Q-Chem 5.3.0 for Intel X86 EM64T Linux

User input:
--------------------------------------------------------------
$rem
   JOBTYPE  sp
   EXCHANGE   omegaB97X-D
   BASIS   6-311+G(2df,2pd)
   UNRESTRICTED   False
   max_scf_cycles   250
   geom_opt_max_cycles   1500
   basis2 6-31G*
   scf_algorithm rca_diis
   SYM_IGNORE  TRUE
   print_input   true
   geom_opt_dmax   80
   pop_mulliken false
   XC_GRID 000075000302
$end

$molecule
0 1
C       -5.3655774744     0.2953494175     0.0112956378
C       -4.1404553278     1.1903712947     0.1470270782
H       -5.5364523451     -0.1060607439     -0.9857818572
H       -6.2275686167     0.9011752299     0.3016057694
H       -5.3197734481     -0.5228893091     0.7332487730
O       -2.9397135603     0.4809251919     -0.2475214297
H       -4.0842439092     1.6351812008     1.1468817619
H       -4.1963641705     2.0077613168     -0.5713815759
H       -2.7926611478     -0.2645935985     0.3349358427
$end
--------------------------------------------------------------

             Standard Nuclear Orientation (Angstroms)
    I     Atom           X                Y                Z
 ----------------------------------------------------------------
    1      C      -5.3655774744     0.2953494175     0.0112956378
    2      C      -4.1404553278     1.1903712947     0.1470270782
    3      H      -5.5364523451    -0.1060607439    -0.9857818572
    4      H      -6.2275686167     0.9011752299     0.3016057694
    5      H      -5.3197734481    -0.5228893091     0.7332487730
    6      O      -2.9397135603     0.4809251919    -0.2475214297
    7      H      -4.0842439092     1.6351812008     1.1468817619
    8      H      -4.1963641705     2.0077613168    -0.5713815759
    9      H      -2.7926611478    -0.2645935985     0.3349358427
 ----------------------------------------------------------------

    7    -154.9800252678      7.25E-06 Convergence criterion met
    6    -155.0484542473      6.04E-06 Convergence criterion met
 Total energy in the final basis set = -155.04845425

                    Orbital Energies (a.u.)
 --------------------------------------------------------------

 Alpha MOs
 -- Occupied --
-19.2443 -10.3312 -10.2755  -1.1138  -0.8507  -0.7221  -0.5936  -0.5405
 -0.5159  -0.4756  -0.4531  -0.4117  -0.3635

                    Cartesian Multipole Moments
 -----------------------------------------------------------------
    Charge (ESU x 10^10)
                 0.0000
    Dipole Moment (Debye)
         X      -1.2394      Y      -0.3634      Z       1.2870
       Tot       1.8233
    Quadrupole Moments (Debye-Ang)
        XX     -11.6896     XY      -0.9046     YY     -18.7558
        XZ      -3.4119     YZ      -0.0958     ZZ     -19.8319

 Total job time:  11.01s(wall), 56.74s(cpu)
        *  Thank you very much for using Q-Chem.  Have a nice day.  *
