 Q-Chem 5.3 (devel), Q-Chem, Inc., Pleasanton, CA (2020)
 Q-Chem 5.3.0 for Intel X86 EM64T Linux

User input:
--------------------------------------------------------------
$rem
   JOBTYPE  sp
   EXCHANGE   omegaB97X-D
   BASIS   6-311+G(2df,2pd)
   UNRESTRICTED   False
   max_scf_cycles   250
   geom_opt_max_cycles   1500
   basis2 6-31G*
   scf_algorithm rca_diis
   SYM_IGNORE  TRUE
   print_input   true
   geom_opt_dmax   80
   pop_mulliken false
   XC_GRID 000075000302
$end

$molecule
0 1
C       -5.3975873762     0.3340294768     0.0126798567
C       -4.1348678570     1.1523665878     0.1637669846
H       -5.4910962309     -0.0185101402     -0.8929542553
H       -6.1628298783     0.8316495306     0.2409332199
H       -5.3365972681     -0.6684673236     0.8190190708
O       -2.9620557365     0.4695290129     -0.2209011783
H       -4.0546046195     1.5432173636     1.1086199696
H       -4.2080043866     2.2563361665     -0.7303920645
H       -2.8551666469     -0.2829306745     0.3695383967
$end
--------------------------------------------------------------

             Standard Nuclear Orientation (Angstroms)
    I     Atom           X                Y                Z
 ----------------------------------------------------------------
    1      C      -5.3975873762     0.3340294768     0.0126798567
    2      C      -4.1348678570     1.1523665878     0.1637669846
    3      H      -5.4910962309    -0.0185101402    -0.8929542553
    4      H      -6.1628298783     0.8316495306     0.2409332199
    5      H      -5.3365972681    -0.6684673236     0.8190190708
    6      O      -2.9620557365     0.4695290129    -0.2209011783
    7      H      -4.0546046195     1.5432173636     1.1086199696
    8      H      -4.2080043866     2.2563361665    -0.7303920645
    9      H      -2.8551666469    -0.2829306745     0.3695383967
 ----------------------------------------------------------------

    7    -154.8968855920      1.20E-05 Convergence criterion met
    6    -154.9673113497      6.42E-06 Convergence criterion met
 Total energy in the final basis set = -154.96731135

                    Orbital Energies (a.u.)
 --------------------------------------------------------------

 Alpha MOs
 -- Occupied --
-19.2525 -10.3518 -10.2685  -1.1317  -0.8603  -0.7228  -0.6112  -0.5487
 -0.5112  -0.4939  -0.4522  -0.3847  -0.3702

                    Cartesian Multipole Moments
 -----------------------------------------------------------------
    Charge (ESU x 10^10)
                -0.0000
    Dipole Moment (Debye)
         X      -1.2176      Y      -0.5867      Z       1.3302
       Tot       1.8964
    Quadrupole Moments (Debye-Ang)
        XX     -11.4817     XY      -0.0460     YY     -19.8731
        XZ      -3.4993     YZ       0.0371     ZZ     -19.8973

 Total job time:  11.05s(wall), 56.77s(cpu)
        *  Thank you very much for using Q-Chem.  Have a nice day.  *
