 Q-Chem 5.3 (devel), Q-Chem, Inc., Pleasanton, CA (2020)
 Q-Chem 5.3.0 for Intel X86 EM64T Linux

User input:
--------------------------------------------------------------
$rem
   JOBTYPE  sp
   EXCHANGE   omegaB97X-D
   BASIS   6-311+G(2df,2pd)
   UNRESTRICTED   False
   max_scf_cycles   250
   geom_opt_max_cycles   1500
   basis2 6-31G*
   scf_algorithm rca_diis
   SYM_IGNORE  TRUE
   print_input   true
   geom_opt_dmax   80
   pop_mulliken false
   XC_GRID 000075000302
$end

$molecule
0 1
C       -5.4026084454     0.2826793474     0.0332443757
C       -4.1586064148     1.1681482895     0.1244407129
H       -5.4403511473     -0.0733585937     -0.9940515132
H       -6.2411533103     0.9188290414     0.3147731713
H       -5.2635318920     -0.5295105013     0.7483149343
O       -2.9717486043     0.4928704184     -0.2593446503
H       -4.0551105051     1.5962357813     1.1291534867
H       -4.1884252847     2.0001974411     -0.5785118662
H       -2.8812743958     -0.2388712240     0.3522913489
$end
--------------------------------------------------------------

             Standard Nuclear Orientation (Angstroms)
    I     Atom           X                Y                Z
 ----------------------------------------------------------------
    1      C      -5.4026084454     0.2826793474     0.0332443757
    2      C      -4.1586064148     1.1681482895     0.1244407129
    3      H      -5.4403511473    -0.0733585937    -0.9940515132
    4      H      -6.2411533103     0.9188290414     0.3147731713
    5      H      -5.2635318920    -0.5295105013     0.7483149343
    6      O      -2.9717486043     0.4928704184    -0.2593446503
    7      H      -4.0551105051     1.5962357813     1.1291534867
    8      H      -4.1884252847     2.0001974411    -0.5785118662
    9      H      -2.8812743958    -0.2388712240     0.3522913489
 ----------------------------------------------------------------

    7    -154.9795612483      7.29E-06 Convergence criterion met
    6    -155.0477121801      5.56E-06 Convergence criterion met
 Total energy in the final basis set = -155.04771218

                    Orbital Energies (a.u.)
 --------------------------------------------------------------

 Alpha MOs
 -- Occupied --
-19.2465 -10.3255 -10.2769  -1.1267  -0.8499  -0.7197  -0.5958  -0.5438
 -0.5214  -0.4722  -0.4613  -0.4146  -0.3611

                    Cartesian Multipole Moments
 -----------------------------------------------------------------
    Charge (ESU x 10^10)
                 0.0000
    Dipole Moment (Debye)
         X      -1.1773      Y      -0.3747      Z       1.2731
       Tot       1.7741
    Quadrupole Moments (Debye-Ang)
        XX     -12.4420     XY      -0.8689     YY     -19.0320
        XZ      -3.4988     YZ      -0.2728     ZZ     -19.7928

 Total job time:  11.25s(wall), 57.96s(cpu)
        *  Thank you very much for using Q-Chem.  Have a nice day.  *
