 Q-Chem 5.3 (devel), Q-Chem, Inc., Pleasanton, CA (2020)
 Q-Chem 5.3.0 for Intel X86 EM64T Linux

User input:
--------------------------------------------------------------
$rem
   JOBTYPE  sp
   EXCHANGE   omegaB97X-D
   BASIS   6-311+G(2df,2pd)
   UNRESTRICTED   False
   max_scf_cycles   250
   geom_opt_max_cycles   1500
   basis2 6-31G*
   scf_algorithm rca_diis
   SYM_IGNORE  TRUE
   print_input   true
   geom_opt_dmax   80
   pop_mulliken false
   XC_GRID 000075000302
$end

$molecule
0 1
C       -5.3781532541     0.3289591546     -0.0055430877
C       -4.1334329063     1.1900933660     0.0966701140
H       -5.3492007474     -0.1285375333     -0.9905964088
H       -6.2367722935     0.8364381121     0.4375157753
H       -5.4740785395     -0.4872399809     0.7216009705
O       -2.9544096688     0.4889827652     -0.2454098148
H       -4.0476810842     1.6086733914     1.1056946944
H       -4.2096877604     2.0418471084     -0.5807407381
H       -2.8193937458     -0.2619963837     0.3311184953
$end
--------------------------------------------------------------

             Standard Nuclear Orientation (Angstroms)
    I     Atom           X                Y                Z
 ----------------------------------------------------------------
    1      C      -5.3781532541     0.3289591546    -0.0055430877
    2      C      -4.1334329063     1.1900933660     0.0966701140
    3      H      -5.3492007474    -0.1285375333    -0.9905964088
    4      H      -6.2367722935     0.8364381121     0.4375157753
    5      H      -5.4740785395    -0.4872399809     0.7216009705
    6      O      -2.9544096688     0.4889827652    -0.2454098148
    7      H      -4.0476810842     1.6086733914     1.1056946944
    8      H      -4.2096877604     2.0418471084    -0.5807407381
    9      H      -2.8193937458    -0.2619963837     0.3311184953
 ----------------------------------------------------------------

    6    -154.9681630648      9.78E-05 Convergence criterion met
    6    -155.0372604680      6.12E-06 Convergence criterion met
 Total energy in the final basis set = -155.03726047

                    Orbital Energies (a.u.)
 --------------------------------------------------------------

 Alpha MOs
 -- Occupied --
-19.2456 -10.3283 -10.2744  -1.1252  -0.8513  -0.7263  -0.5976  -0.5471
 -0.5341  -0.4758  -0.4307  -0.4149  -0.3599

                    Cartesian Multipole Moments
 -----------------------------------------------------------------
    Charge (ESU x 10^10)
                 0.0000
    Dipole Moment (Debye)
         X      -1.1419      Y      -0.4790      Z       1.3374
       Tot       1.8226
    Quadrupole Moments (Debye-Ang)
        XX     -12.4740     XY      -0.1516     YY     -19.0366
        XZ      -4.3693     YZ      -0.0734     ZZ     -19.8368

 Total job time:  10.95s(wall), 56.31s(cpu)
        *  Thank you very much for using Q-Chem.  Have a nice day.  *
