 Q-Chem 5.3 (devel), Q-Chem, Inc., Pleasanton, CA (2020)
 Q-Chem 5.3.0 for Intel X86 EM64T Linux

User input:
--------------------------------------------------------------
$rem
   JOBTYPE  sp
   EXCHANGE   omegaB97X-D
   BASIS   6-311+G(2df,2pd)
   UNRESTRICTED   False
   max_scf_cycles   250
   geom_opt_max_cycles   1500
   basis2 6-31G*
   scf_algorithm rca_diis
   SYM_IGNORE  TRUE
   print_input   true
   geom_opt_dmax   80
   pop_mulliken false
   XC_GRID 000075000302
$end

$molecule
0 1
C       -5.4066083944     0.3225688525     0.0446984906
C       -4.1262101446     1.2033719052     0.1269986465
H       -5.4766769885     -0.0863742081     -0.9638198650
H       -6.3406990034     0.8332223091     0.2808998590
H       -5.3037119560     -0.5252719201     0.7264815823
O       -2.9386405252     0.4747248620     -0.2513609817
H       -3.9973039354     1.6226330006     1.1299312084
H       -4.1778259630     2.0360417733     -0.5731588927
H       -2.8351330894     -0.2636965746     0.3496399526
$end
--------------------------------------------------------------

             Standard Nuclear Orientation (Angstroms)
    I     Atom           X                Y                Z
 ----------------------------------------------------------------
    1      C      -5.4066083944     0.3225688525     0.0446984906
    2      C      -4.1262101446     1.2033719052     0.1269986465
    3      H      -5.4766769885    -0.0863742081    -0.9638198650
    4      H      -6.3406990034     0.8332223091     0.2808998590
    5      H      -5.3037119560    -0.5252719201     0.7264815823
    6      O      -2.9386405252     0.4747248620    -0.2513609817
    7      H      -3.9973039354     1.6226330006     1.1299312084
    8      H      -4.1778259630     2.0360417733    -0.5731588927
    9      H      -2.8351330894    -0.2636965746     0.3496399526
 ----------------------------------------------------------------

    7    -154.9809958959      7.22E-06 Convergence criterion met
    6    -155.0490032285      5.61E-06 Convergence criterion met
 Total energy in the final basis set = -155.04900323

                    Orbital Energies (a.u.)
 --------------------------------------------------------------

 Alpha MOs
 -- Occupied --
-19.2473 -10.3328 -10.2784  -1.1180  -0.8435  -0.7247  -0.5908  -0.5393
 -0.5216  -0.4658  -0.4586  -0.4157  -0.3640

                    Cartesian Multipole Moments
 -----------------------------------------------------------------
    Charge (ESU x 10^10)
                 0.0000
    Dipole Moment (Debye)
         X      -1.2397      Y      -0.3608      Z       1.2691
       Tot       1.8105
    Quadrupole Moments (Debye-Ang)
        XX     -11.5273     XY      -0.7932     YY     -18.8413
        XZ      -3.3633     YZ      -0.2965     ZZ     -19.9930

 Total job time:  11.00s(wall), 56.71s(cpu)
        *  Thank you very much for using Q-Chem.  Have a nice day.  *
