 Q-Chem 5.3 (devel), Q-Chem, Inc., Pleasanton, CA (2020)
 Q-Chem 5.3.0 for Intel X86 EM64T Linux

User input:
--------------------------------------------------------------
$rem
   JOBTYPE  sp
   EXCHANGE   omegaB97X-D
   BASIS   6-311+G(2df,2pd)
   UNRESTRICTED   False
   max_scf_cycles   250
   geom_opt_max_cycles   1500
   basis2 6-31G*
   scf_algorithm rca_diis
   SYM_IGNORE  TRUE
   print_input   true
   geom_opt_dmax   80
   pop_mulliken false
   XC_GRID 000075000302
$end

$molecule
0 1
C       -5.3794271866     0.2975397332     0.0268125226
C       -4.1374495552     1.1506804113     0.0752780494
H       -5.5025748810     -0.1181053844     -0.9865753719
H       -6.2488283195     0.8652846668     0.2686444029
H       -5.3175895843     -0.5182862037     0.7185424621
O       -2.9592293513     0.4646391323     -0.2714364754
H       -3.9992246129     1.7078252441     1.3683005682
H       -4.2219116572     2.0383271400     -0.6589179963
H       -2.8365748520     -0.2706847395     0.3296618385
$end
--------------------------------------------------------------

             Standard Nuclear Orientation (Angstroms)
    I     Atom           X                Y                Z
 ----------------------------------------------------------------
    1      C      -5.3794271866     0.2975397332     0.0268125226
    2      C      -4.1374495552     1.1506804113     0.0752780494
    3      H      -5.5025748810    -0.1181053844    -0.9865753719
    4      H      -6.2488283195     0.8652846668     0.2686444029
    5      H      -5.3175895843    -0.5182862037     0.7185424621
    6      O      -2.9592293513     0.4646391323    -0.2714364754
    7      H      -3.9992246129     1.7078252441     1.3683005682
    8      H      -4.2219116572     2.0383271400    -0.6589179963
    9      H      -2.8365748520    -0.2706847395     0.3296618385
 ----------------------------------------------------------------

    6    -154.9475253673      9.38E-05 Convergence criterion met
    6    -155.0147515458      7.80E-06 Convergence criterion met
 Total energy in the final basis set = -155.01475155

                    Orbital Energies (a.u.)
 --------------------------------------------------------------

 Alpha MOs
 -- Occupied --
-19.2570 -10.3643 -10.2757  -1.1361  -0.8515  -0.7155  -0.5800  -0.5492
 -0.5262  -0.4676  -0.4636  -0.4073  -0.3547

                    Cartesian Multipole Moments
 -----------------------------------------------------------------
    Charge (ESU x 10^10)
                -0.0000
    Dipole Moment (Debye)
         X      -1.1699      Y      -0.7692      Z       0.8341
       Tot       1.6297
    Quadrupole Moments (Debye-Ang)
        XX     -11.8379     XY       0.8366     YY     -19.9223
        XZ      -1.6051     YZ      -1.0777     ZZ     -20.5891

 Total job time:  10.92s(wall), 55.97s(cpu)
        *  Thank you very much for using Q-Chem.  Have a nice day.  *
