 Q-Chem 5.3 (devel), Q-Chem, Inc., Pleasanton, CA (2020)
 Q-Chem 5.3.0 for Intel X86 EM64T Linux

User input:
--------------------------------------------------------------
$rem
   JOBTYPE  sp
   EXCHANGE   omegaB97X-D
   BASIS   6-311+G(2df,2pd)
   UNRESTRICTED   False
   max_scf_cycles   250
   geom_opt_max_cycles   1500
   basis2 6-31G*
   scf_algorithm rca_diis
   SYM_IGNORE  TRUE
   print_input   true
   geom_opt_dmax   80
   pop_mulliken false
   XC_GRID 000075000302
$end

$molecule
0 1
C       -5.3509380842     0.2709970284     0.0484589349
C       -4.1237726256     1.1533437393     0.1433089349
H       -5.4713985703     -0.1133874345     -0.9537017429
H       -6.3582447873     0.9181495734     0.3290677454
H       -5.2977587436     -0.4803668991     0.6722182726
O       -2.9403788342     0.4790155964     -0.2328191140
H       -4.0335767871     1.5693018737     1.1278400290
H       -4.2135331829     2.0826271564     -0.6255620766
H       -2.8132083847     -0.2624606342     0.3614990168
$end
--------------------------------------------------------------

             Standard Nuclear Orientation (Angstroms)
    I     Atom           X                Y                Z
 ----------------------------------------------------------------
    1      C      -5.3509380842     0.2709970284     0.0484589349
    2      C      -4.1237726256     1.1533437393     0.1433089349
    3      H      -5.4713985703    -0.1133874345    -0.9537017429
    4      H      -6.3582447873     0.9181495734     0.3290677454
    5      H      -5.2977587436    -0.4803668991     0.6722182726
    6      O      -2.9403788342     0.4790155964    -0.2328191140
    7      H      -4.0335767871     1.5693018737     1.1278400290
    8      H      -4.2135331829     2.0826271564    -0.6255620766
    9      H      -2.8132083847    -0.2624606342     0.3614990168
 ----------------------------------------------------------------

    6    -154.9561566868      9.84E-05 Convergence criterion met
    6    -155.0248498966      6.20E-06 Convergence criterion met
 Total energy in the final basis set = -155.02484990

                    Orbital Energies (a.u.)
 --------------------------------------------------------------

 Alpha MOs
 -- Occupied --
-19.2494 -10.3369 -10.2750  -1.1293  -0.8503  -0.7207  -0.6009  -0.5444
 -0.5207  -0.4735  -0.4489  -0.4069  -0.3652

                    Cartesian Multipole Moments
 -----------------------------------------------------------------
    Charge (ESU x 10^10)
                 0.0000
    Dipole Moment (Debye)
         X      -1.0555      Y      -0.6163      Z       1.3247
       Tot       1.8024
    Quadrupole Moments (Debye-Ang)
        XX     -13.3004     XY       0.3760     YY     -19.2924
        XZ      -3.6160     YZ      -0.2122     ZZ     -19.9313

 Total job time:  10.84s(wall), 55.75s(cpu)
        *  Thank you very much for using Q-Chem.  Have a nice day.  *
