 Q-Chem 5.3 (devel), Q-Chem, Inc., Pleasanton, CA (2020)
 Q-Chem 5.3.0 for Intel X86 EM64T Linux

User input:
--------------------------------------------------------------
$rem
   JOBTYPE  sp
   EXCHANGE   omegaB97X-D
   BASIS   6-311+G(2df,2pd)
   UNRESTRICTED   False
   max_scf_cycles   250
   geom_opt_max_cycles   1500
   basis2 6-31G*
   scf_algorithm rca_diis
   SYM_IGNORE  TRUE
   print_input   true
   geom_opt_dmax   80
   pop_mulliken false
   XC_GRID 000075000302
$end

$molecule
0 1
C       -5.5775263847     0.3882040563     0.0892999274
C       -4.0977502934     1.3198879586     0.1486095403
H       -5.4072479165     -0.0496292316     -0.8985542651
H       -6.6442948346     0.5358115515     0.2396375891
H       -5.2577461839     -0.4770948912     0.6801668065
O       -2.8863294939     0.3916123914     -0.2861826648
H       -3.8236232855     1.7117252727     1.1252781117
H       -4.0345971506     2.1221971317     -0.5807833121
H       -2.8736944567     -0.3254942394     0.3528382670
$end
--------------------------------------------------------------

             Standard Nuclear Orientation (Angstroms)
    I     Atom           X                Y                Z
 ----------------------------------------------------------------
    1      C      -5.5775263847     0.3882040563     0.0892999274
    2      C      -4.0977502934     1.3198879586     0.1486095403
    3      H      -5.4072479165    -0.0496292316    -0.8985542651
    4      H      -6.6442948346     0.5358115515     0.2396375891
    5      H      -5.2577461839    -0.4770948912     0.6801668065
    6      O      -2.8863294939     0.3916123914    -0.2861826648
    7      H      -3.8236232855     1.7117252727     1.1252781117
    8      H      -4.0345971506     2.1221971317    -0.5807833121
    9      H      -2.8736944567    -0.3254942394     0.3528382670
 ----------------------------------------------------------------

    7    -154.9274840362      2.74E-05 Convergence criterion met
    6    -154.9963011353      7.48E-06 Convergence criterion met
 Total energy in the final basis set = -154.99630114

                    Orbital Energies (a.u.)
 --------------------------------------------------------------

 Alpha MOs
 -- Occupied --
-19.2526 -10.3617 -10.2957  -1.0880  -0.8244  -0.7372  -0.5701  -0.5271
 -0.5127  -0.4525  -0.4426  -0.4266  -0.3697

                    Cartesian Multipole Moments
 -----------------------------------------------------------------
    Charge (ESU x 10^10)
                 0.0000
    Dipole Moment (Debye)
         X      -1.3835      Y      -0.1211      Z       1.3523
       Tot       1.9384
    Quadrupole Moments (Debye-Ang)
        XX     -10.2646     XY      -0.9395     YY     -18.3132
        XZ      -3.6028     YZ      -0.2969     ZZ     -20.4377

 Total job time:  10.79s(wall), 55.60s(cpu)
        *  Thank you very much for using Q-Chem.  Have a nice day.  *
