 Q-Chem 5.3 (devel), Q-Chem, Inc., Pleasanton, CA (2020)
 Q-Chem 5.3.0 for Intel X86 EM64T Linux

User input:
--------------------------------------------------------------
$rem
   JOBTYPE  sp
   EXCHANGE   omegaB97X-D
   BASIS   6-311+G(2df,2pd)
   UNRESTRICTED   False
   max_scf_cycles   250
   geom_opt_max_cycles   1500
   basis2 6-31G*
   scf_algorithm rca_diis
   SYM_IGNORE  TRUE
   print_input   true
   geom_opt_dmax   80
   pop_mulliken false
   XC_GRID 000075000302
$end

$molecule
0 1
C       -5.3952081495     0.3564528781     0.0566907900
C       -4.1555487815     1.1900789351     0.1297254972
H       -5.4763211297     -0.3601212952     -0.7695477213
H       -6.1645215678     1.0756494797     0.3026530437
H       -5.3041020161     -0.6732489764     0.4277748609
O       -2.9839428918     0.4663700590     -0.2442879388
H       -4.0369186530     1.7298642226     1.0832743099
H       -4.2181209129     2.1054616423     -0.4679060710
H       -2.8681258976     -0.2732869452     0.3519332294
$end
--------------------------------------------------------------

             Standard Nuclear Orientation (Angstroms)
    I     Atom           X                Y                Z
 ----------------------------------------------------------------
    1      C      -5.3952081495     0.3564528781     0.0566907900
    2      C      -4.1555487815     1.1900789351     0.1297254972
    3      H      -5.4763211297    -0.3601212952    -0.7695477213
    4      H      -6.1645215678     1.0756494797     0.3026530437
    5      H      -5.3041020161    -0.6732489764     0.4277748609
    6      O      -2.9839428918     0.4663700590    -0.2442879388
    7      H      -4.0369186530     1.7298642226     1.0832743099
    8      H      -4.2181209129     2.1054616423    -0.4679060710
    9      H      -2.8681258976    -0.2732869452     0.3519332294
 ----------------------------------------------------------------

    7    -154.9240688950      1.20E-05 Convergence criterion met
    6    -154.9961107218      5.72E-06 Convergence criterion met
 Total energy in the final basis set = -154.99611072

                    Orbital Energies (a.u.)
 --------------------------------------------------------------

 Alpha MOs
 -- Occupied --
-19.2475 -10.3300 -10.2774  -1.1228  -0.8601  -0.7390  -0.6087  -0.5503
 -0.5269  -0.4993  -0.4278  -0.3779  -0.3594

                    Cartesian Multipole Moments
 -----------------------------------------------------------------
    Charge (ESU x 10^10)
                 0.0000
    Dipole Moment (Debye)
         X      -1.1067      Y      -0.5509      Z       1.1693
       Tot       1.7016
    Quadrupole Moments (Debye-Ang)
        XX     -13.0368     XY       0.2414     YY     -17.2926
        XZ      -2.9668     YZ       0.5063     ZZ     -21.5577

 Total job time:  11.09s(wall), 57.15s(cpu)
        *  Thank you very much for using Q-Chem.  Have a nice day.  *
