 Q-Chem 5.3 (devel), Q-Chem, Inc., Pleasanton, CA (2020)
 Q-Chem 5.3.0 for Intel X86 EM64T Linux

User input:
--------------------------------------------------------------
$rem
   JOBTYPE  sp
   EXCHANGE   omegaB97X-D
   BASIS   6-311+G(2df,2pd)
   UNRESTRICTED   False
   max_scf_cycles   250
   geom_opt_max_cycles   1500
   basis2 6-31G*
   scf_algorithm rca_diis
   SYM_IGNORE  TRUE
   print_input   true
   geom_opt_dmax   80
   pop_mulliken false
   XC_GRID 000075000302
$end

$molecule
0 1
C       -5.3738597023     0.3249332884     0.0037266953
C       -4.1202215402     1.1675933823     0.1315242159
H       -5.5033454934     -0.1022849617     -0.9899655002
H       -6.2645845725     0.8801941951     0.3000339225
H       -5.2834273578     -0.5033433635     0.7122782582
O       -2.9446706243     0.4859779126     -0.2467782331
H       -3.9789522094     1.5938445256     1.1305136394
H       -4.2574433049     1.9981919699     -0.5598725299
H       -2.8763051951     -0.2278869488     0.3888495322
$end
--------------------------------------------------------------

             Standard Nuclear Orientation (Angstroms)
    I     Atom           X                Y                Z
 ----------------------------------------------------------------
    1      C      -5.3738597023     0.3249332884     0.0037266953
    2      C      -4.1202215402     1.1675933823     0.1315242159
    3      H      -5.5033454934    -0.1022849617    -0.9899655002
    4      H      -6.2645845725     0.8801941951     0.3000339225
    5      H      -5.2834273578    -0.5033433635     0.7122782582
    6      O      -2.9446706243     0.4859779126    -0.2467782331
    7      H      -3.9789522094     1.5938445256     1.1305136394
    8      H      -4.2574433049     1.9981919699    -0.5598725299
    9      H      -2.8763051951    -0.2278869488     0.3888495322
 ----------------------------------------------------------------

    7    -154.9802674397      7.45E-06 Convergence criterion met
    6    -155.0483341047      5.55E-06 Convergence criterion met
 Total energy in the final basis set = -155.04833410

                    Orbital Energies (a.u.)
 --------------------------------------------------------------

 Alpha MOs
 -- Occupied --
-19.2486 -10.3263 -10.2749  -1.1311  -0.8504  -0.7204  -0.5965  -0.5453
 -0.5268  -0.4775  -0.4561  -0.4091  -0.3652

                    Cartesian Multipole Moments
 -----------------------------------------------------------------
    Charge (ESU x 10^10)
                 0.0000
    Dipole Moment (Debye)
         X      -1.2366      Y      -0.3748      Z       1.2880
       Tot       1.8244
    Quadrupole Moments (Debye-Ang)
        XX     -11.6900     XY      -0.7072     YY     -19.1585
        XZ      -3.2966     YZ      -0.1607     ZZ     -19.7932

 Total job time:  11.08s(wall), 57.08s(cpu)
        *  Thank you very much for using Q-Chem.  Have a nice day.  *
