 Q-Chem 5.3 (devel), Q-Chem, Inc., Pleasanton, CA (2020)
 Q-Chem 5.3.0 for Intel X86 EM64T Linux

User input:
--------------------------------------------------------------
$rem
   JOBTYPE  sp
   EXCHANGE   omegaB97X-D
   BASIS   6-311+G(2df,2pd)
   UNRESTRICTED   False
   max_scf_cycles   250
   geom_opt_max_cycles   1500
   basis2 6-31G*
   scf_algorithm rca_diis
   SYM_IGNORE  TRUE
   print_input   true
   geom_opt_dmax   80
   pop_mulliken false
   XC_GRID 000075000302
$end

$molecule
0 1
C       -5.3027488986     0.3574994643     0.0553290588
C       -4.1600015126     1.2943004054     0.1676269306
H       -5.2082447035     -0.0249935907     -0.9604840962
H       -6.3303831550     0.6514220493     0.2555758712
H       -5.0407869141     -0.4806717209     0.7081372582
O       -3.2638957601     0.3216239640     -0.3017353526
H       -3.8805056247     1.7429097275     1.1269792002
H       -4.2000829209     2.1077075158     -0.5563203775
H       -3.2161605104     -0.3525778147     0.3752015073
$end
--------------------------------------------------------------

             Standard Nuclear Orientation (Angstroms)
    I     Atom           X                Y                Z
 ----------------------------------------------------------------
    1      C      -5.3027488986     0.3574994643     0.0553290588
    2      C      -4.1600015126     1.2943004054     0.1676269306
    3      H      -5.2082447035    -0.0249935907    -0.9604840962
    4      H      -6.3303831550     0.6514220493     0.2555758712
    5      H      -5.0407869141    -0.4806717209     0.7081372582
    6      O      -3.2638957601     0.3216239640    -0.3017353526
    7      H      -3.8805056247     1.7429097275     1.1269792002
    8      H      -4.2000829209     2.1077075158    -0.5563203775
    9      H      -3.2161605104    -0.3525778147     0.3752015073
 ----------------------------------------------------------------

    6    -154.9489074335      7.81E-05 Convergence criterion met
    6    -155.0173913200      6.42E-06 Convergence criterion met
 Total energy in the final basis set = -155.01739132

                    Orbital Energies (a.u.)
 --------------------------------------------------------------

 Alpha MOs
 -- Occupied --
-19.2397 -10.3256 -10.2680  -1.1416  -0.8432  -0.7279  -0.6094  -0.5555
 -0.5229  -0.4632  -0.4467  -0.4165  -0.3519

                    Cartesian Multipole Moments
 -----------------------------------------------------------------
    Charge (ESU x 10^10)
                -0.0000
    Dipole Moment (Debye)
         X      -0.7697      Y      -0.0151      Z       1.3197
       Tot       1.5278
    Quadrupole Moments (Debye-Ang)
        XX     -15.8412     XY      -1.1118     YY     -18.0378
        XZ      -3.6272     YZ      -0.3098     ZZ     -19.8547

 Total job time:  11.28s(wall), 58.02s(cpu)
        *  Thank you very much for using Q-Chem.  Have a nice day.  *
