 Q-Chem 5.3 (devel), Q-Chem, Inc., Pleasanton, CA (2020)
 Q-Chem 5.3.0 for Intel X86 EM64T Linux

User input:
--------------------------------------------------------------
$rem
   JOBTYPE  sp
   EXCHANGE   omegaB97X-D
   BASIS   6-311+G(2df,2pd)
   UNRESTRICTED   False
   max_scf_cycles   250
   geom_opt_max_cycles   1500
   basis2 6-31G*
   scf_algorithm rca_diis
   SYM_IGNORE  TRUE
   print_input   true
   geom_opt_dmax   80
   pop_mulliken false
   XC_GRID 000075000302
$end

$molecule
0 1
C       -5.3360378410     0.2380600630     0.0098518483
C       -4.1109280932     1.1644446615     0.1152473005
H       -5.5268895703     0.2083445618     -1.0558177815
H       -6.3327958506     0.6378335390     0.2509018828
H       -5.3661682816     -0.3077262088     0.9485454007
O       -2.9155542733     0.5219015672     -0.2415391988
H       -4.0353062521     1.4628961040     1.1609206596
H       -4.1998611257     1.9100916617     -0.6671931720
H       -2.7792687121     -0.2186259493     0.3493930605
$end
--------------------------------------------------------------

             Standard Nuclear Orientation (Angstroms)
    I     Atom           X                Y                Z
 ----------------------------------------------------------------
    1      C      -5.3360378410     0.2380600630     0.0098518483
    2      C      -4.1109280932     1.1644446615     0.1152473005
    3      H      -5.5268895703     0.2083445618    -1.0558177815
    4      H      -6.3327958506     0.6378335390     0.2509018828
    5      H      -5.3661682816    -0.3077262088     0.9485454007
    6      O      -2.9155542733     0.5219015672    -0.2415391988
    7      H      -4.0353062521     1.4628961040     1.1609206596
    8      H      -4.1998611257     1.9100916617    -0.6671931720
    9      H      -2.7792687121    -0.2186259493     0.3493930605
 ----------------------------------------------------------------

    7    -154.9296914579      1.12E-05 Convergence criterion met
    6    -155.0007949517      7.15E-06 Convergence criterion met
 Total energy in the final basis set = -155.00079495

                    Orbital Energies (a.u.)
 --------------------------------------------------------------

 Alpha MOs
 -- Occupied --
-19.2453 -10.3269 -10.2754  -1.1302  -0.8532  -0.7250  -0.6087  -0.5574
 -0.5254  -0.4917  -0.4221  -0.3961  -0.3562

                    Cartesian Multipole Moments
 -----------------------------------------------------------------
    Charge (ESU x 10^10)
                 0.0000
    Dipole Moment (Debye)
         X      -1.3578      Y      -0.2984      Z       1.3102
       Tot       1.9104
    Quadrupole Moments (Debye-Ang)
        XX     -10.0457     XY      -1.3097     YY     -20.6113
        XZ      -3.5805     YZ      -0.9373     ZZ     -18.9391

 Total job time:  11.11s(wall), 57.24s(cpu)
        *  Thank you very much for using Q-Chem.  Have a nice day.  *
