 Q-Chem 5.3 (devel), Q-Chem, Inc., Pleasanton, CA (2020)
 Q-Chem 5.3.0 for Intel X86 EM64T Linux

User input:
--------------------------------------------------------------
$rem
   JOBTYPE  sp
   EXCHANGE   omegaB97X-D
   BASIS   6-311+G(2df,2pd)
   UNRESTRICTED   False
   max_scf_cycles   250
   geom_opt_max_cycles   1500
   basis2 6-31G*
   scf_algorithm rca_diis
   SYM_IGNORE  TRUE
   print_input   true
   geom_opt_dmax   80
   pop_mulliken false
   XC_GRID 000075000302
$end

$molecule
0 1
C       -5.3702577921     0.3187962802     0.0418357968
C       -4.1305762153     1.1985305586     0.1548556867
H       -5.4824682388     -0.0700985423     -0.9611995734
H       -6.2765304023     0.9013038016     0.2993304780
H       -5.3100915240     -0.5364646051     0.7408328468
O       -2.9489532777     0.5074507147     -0.2252165556
H       -4.0568898400     1.5335084627     0.9692580275
H       -4.2008500237     2.0013282548     -0.5123287593
H       -2.8261926860     -0.2371349253     0.3629420526
$end
--------------------------------------------------------------

             Standard Nuclear Orientation (Angstroms)
    I     Atom           X                Y                Z
 ----------------------------------------------------------------
    1      C      -5.3702577921     0.3187962802     0.0418357968
    2      C      -4.1305762153     1.1985305586     0.1548556867
    3      H      -5.4824682388    -0.0700985423    -0.9611995734
    4      H      -6.2765304023     0.9013038016     0.2993304780
    5      H      -5.3100915240    -0.5364646051     0.7408328468
    6      O      -2.9489532777     0.5074507147    -0.2252165556
    7      H      -4.0568898400     1.5335084627     0.9692580275
    8      H      -4.2008500237     2.0013282548    -0.5123287593
    9      H      -2.8261926860    -0.2371349253     0.3629420526
 ----------------------------------------------------------------

    7    -154.9372318018      7.96E-06 Convergence criterion met
    6    -155.0086575451      5.62E-06 Convergence criterion met
 Total energy in the final basis set = -155.00865755

                    Orbital Energies (a.u.)
 --------------------------------------------------------------

 Alpha MOs
 -- Occupied --
-19.2426 -10.2982 -10.2754  -1.1229  -0.8573  -0.7384  -0.6154  -0.5451
 -0.5216  -0.4738  -0.4559  -0.4176  -0.3645

                    Cartesian Multipole Moments
 -----------------------------------------------------------------
    Charge (ESU x 10^10)
                 0.0000
    Dipole Moment (Debye)
         X      -1.1907      Y      -0.2879      Z       1.3465
       Tot       1.8203
    Quadrupole Moments (Debye-Ang)
        XX     -12.0085     XY      -1.2023     YY     -18.4659
        XZ      -3.6979     YZ      -0.0587     ZZ     -19.6700

 Total job time:  11.19s(wall), 57.67s(cpu)
        *  Thank you very much for using Q-Chem.  Have a nice day.  *
