 Q-Chem 5.3 (devel), Q-Chem, Inc., Pleasanton, CA (2020)
 Q-Chem 5.3.0 for Intel X86 EM64T Linux

User input:
--------------------------------------------------------------
$rem
   JOBTYPE  sp
   EXCHANGE   omegaB97X-D
   BASIS   6-311+G(2df,2pd)
   UNRESTRICTED   False
   max_scf_cycles   250
   geom_opt_max_cycles   1500
   basis2 6-31G*
   scf_algorithm rca_diis
   SYM_IGNORE  TRUE
   print_input   true
   geom_opt_dmax   80
   pop_mulliken false
   XC_GRID 000075000302
$end

$molecule
0 1
C       -5.3712967144     0.3163359658     0.0037988197
C       -4.1335243809     1.1907662993     0.0970294806
H       -5.5309450173     -0.1555183504     -0.9645710098
H       -6.2618465902     0.8810314960     0.2840732680
H       -5.2498901953     -0.4690777115     0.7547291313
O       -2.9447502987     0.4977032907     -0.2354682124
H       -4.0689365382     1.5475947856     1.1324058993
H       -4.1710729332     2.0698976557     -0.5444194626
H       -2.8705473317     -0.2615134312     0.3427320859
$end
--------------------------------------------------------------

             Standard Nuclear Orientation (Angstroms)
    I     Atom           X                Y                Z
 ----------------------------------------------------------------
    1      C      -5.3712967144     0.3163359658     0.0037988197
    2      C      -4.1335243809     1.1907662993     0.0970294806
    3      H      -5.5309450173    -0.1555183504    -0.9645710098
    4      H      -6.2618465902     0.8810314960     0.2840732680
    5      H      -5.2498901953    -0.4690777115     0.7547291313
    6      O      -2.9447502987     0.4977032907    -0.2354682124
    7      H      -4.0689365382     1.5475947856     1.1324058993
    8      H      -4.1710729332     2.0698976557    -0.5444194626
    9      H      -2.8705473317    -0.2615134312     0.3427320859
 ----------------------------------------------------------------

    7    -154.9811659147      7.50E-06 Convergence criterion met
    6    -155.0494796277      5.72E-06 Convergence criterion met
 Total energy in the final basis set = -155.04947963

                    Orbital Energies (a.u.)
 --------------------------------------------------------------

 Alpha MOs
 -- Occupied --
-19.2462 -10.3279 -10.2756  -1.1264  -0.8503  -0.7234  -0.5966  -0.5458
 -0.5217  -0.4743  -0.4571  -0.4130  -0.3615

                    Cartesian Multipole Moments
 -----------------------------------------------------------------
    Charge (ESU x 10^10)
                 0.0000
    Dipole Moment (Debye)
         X      -1.2660      Y      -0.4376      Z       1.2146
       Tot       1.8082
    Quadrupole Moments (Debye-Ang)
        XX     -11.5465     XY      -0.5405     YY     -18.9019
        XZ      -3.2327     YZ      -0.2814     ZZ     -19.9508

 Total job time:  11.13s(wall), 57.44s(cpu)
        *  Thank you very much for using Q-Chem.  Have a nice day.  *
