 Q-Chem 5.3 (devel), Q-Chem, Inc., Pleasanton, CA (2020)
 Q-Chem 5.3.0 for Intel X86 EM64T Linux

User input:
--------------------------------------------------------------
$rem
   JOBTYPE  sp
   EXCHANGE   omegaB97X-D
   BASIS   6-311+G(2df,2pd)
   UNRESTRICTED   False
   max_scf_cycles   250
   geom_opt_max_cycles   1500
   basis2 6-31G*
   scf_algorithm rca_diis
   SYM_IGNORE  TRUE
   print_input   true
   geom_opt_dmax   80
   pop_mulliken false
   XC_GRID 000075000302
$end

$molecule
0 1
C       -5.4147934712     0.4154826431     0.0340551298
C       -4.2046125378     1.1356378669     0.1612829557
H       -5.4338042285     -0.0454329982     -0.9520316704
H       -6.3715253302     0.8527970788     0.3048235340
H       -5.1788984661     -0.4016974144     0.7211727627
O       -3.0045075579     0.4535103947     -0.2081775287
H       -4.1655530690     1.6103846770     1.1460222557
H       -4.1380256593     1.9176967959     -0.5932994866
H       -2.6910896798     -0.3211590438     0.2564620479
$end
--------------------------------------------------------------

             Standard Nuclear Orientation (Angstroms)
    I     Atom           X                Y                Z
 ----------------------------------------------------------------
    1      C      -5.4147934712     0.4154826431     0.0340551298
    2      C      -4.2046125378     1.1356378669     0.1612829557
    3      H      -5.4338042285    -0.0454329982    -0.9520316704
    4      H      -6.3715253302     0.8527970788     0.3048235340
    5      H      -5.1788984661    -0.4016974144     0.7211727627
    6      O      -3.0045075579     0.4535103947    -0.2081775287
    7      H      -4.1655530690     1.6103846770     1.1460222557
    8      H      -4.1380256593     1.9176967959    -0.5932994866
    9      H      -2.6910896798    -0.3211590438     0.2564620479
 ----------------------------------------------------------------

    7    -154.9574095216      1.31E-05 Convergence criterion met
    6    -155.0277399145      6.04E-06 Convergence criterion met
 Total energy in the final basis set = -155.02773991

                    Orbital Energies (a.u.)
 --------------------------------------------------------------

 Alpha MOs
 -- Occupied --
-19.2435 -10.3214 -10.2667  -1.1171  -0.8765  -0.7228  -0.6036  -0.5561
 -0.5353  -0.4631  -0.4419  -0.3944  -0.3690

                    Cartesian Multipole Moments
 -----------------------------------------------------------------
    Charge (ESU x 10^10)
                 0.0000
    Dipole Moment (Debye)
         X      -1.0092      Y      -0.5518      Z       1.1512
       Tot       1.6273
    Quadrupole Moments (Debye-Ang)
        XX     -12.1233     XY      -0.6638     YY     -19.4491
        XZ      -3.2871     YZ      -0.0063     ZZ     -20.0445

 Total job time:  11.21s(wall), 57.96s(cpu)
        *  Thank you very much for using Q-Chem.  Have a nice day.  *
