 Q-Chem 5.3 (devel), Q-Chem, Inc., Pleasanton, CA (2020)
 Q-Chem 5.3.0 for Intel X86 EM64T Linux

User input:
--------------------------------------------------------------
$rem
   JOBTYPE  sp
   EXCHANGE   omegaB97X-D
   BASIS   6-311+G(2df,2pd)
   UNRESTRICTED   False
   max_scf_cycles   250
   geom_opt_max_cycles   1500
   basis2 6-31G*
   scf_algorithm rca_diis
   SYM_IGNORE  TRUE
   print_input   true
   geom_opt_dmax   80
   pop_mulliken false
   XC_GRID 000075000302
$end

$molecule
0 1
C       -5.3717545228     0.2584229678     0.1676242658
C       -4.1896901918     1.2171790250     0.0832172531
H       -5.4433865112     -0.0255908999     -0.8842169031
H       -6.2514397402     0.9047646541     0.2177542896
H       -5.4332799458     -0.6109903334     0.8162365567
O       -2.9889458696     0.4978024618     -0.2255513616
H       -4.2580645345     1.6151184350     1.1057610875
H       -4.0115372373     2.0575033653     -0.5896554988
H       -2.6547114467     -0.2969896757     0.1791403109
$end
--------------------------------------------------------------

             Standard Nuclear Orientation (Angstroms)
    I     Atom           X                Y                Z
 ----------------------------------------------------------------
    1      C      -5.3717545228     0.2584229678     0.1676242658
    2      C      -4.1896901918     1.2171790250     0.0832172531
    3      H      -5.4433865112    -0.0255908999    -0.8842169031
    4      H      -6.2514397402     0.9047646541     0.2177542896
    5      H      -5.4332799458    -0.6109903334     0.8162365567
    6      O      -2.9889458696     0.4978024618    -0.2255513616
    7      H      -4.2580645345     1.6151184350     1.1057610875
    8      H      -4.0115372373     2.0575033653    -0.5896554988
    9      H      -2.6547114467    -0.2969896757     0.1791403109
 ----------------------------------------------------------------

    6    -154.9408594518      7.59E-05 Convergence criterion met
    6    -155.0119848972      6.83E-06 Convergence criterion met
 Total energy in the final basis set = -155.01198490

                    Orbital Energies (a.u.)
 --------------------------------------------------------------

 Alpha MOs
 -- Occupied --
-19.2342 -10.3354 -10.2752  -1.1084  -0.8549  -0.7326  -0.5994  -0.5463
 -0.5224  -0.4732  -0.4350  -0.3969  -0.3470

                    Cartesian Multipole Moments
 -----------------------------------------------------------------
    Charge (ESU x 10^10)
                 0.0000
    Dipole Moment (Debye)
         X      -0.9636      Y      -0.5216      Z       1.0005
       Tot       1.4838
    Quadrupole Moments (Debye-Ang)
        XX     -13.1604     XY      -0.4277     YY     -18.4311
        XZ      -2.9984     YZ      -0.8276     ZZ     -20.4733

 Total job time:  10.84s(wall), 55.83s(cpu)
        *  Thank you very much for using Q-Chem.  Have a nice day.  *
