 Q-Chem 5.3 (devel), Q-Chem, Inc., Pleasanton, CA (2020)
 Q-Chem 5.3.0 for Intel X86 EM64T Linux

User input:
--------------------------------------------------------------
$rem
   JOBTYPE  sp
   EXCHANGE   omegaB97X-D
   BASIS   6-311+G(2df,2pd)
   UNRESTRICTED   False
   max_scf_cycles   250
   geom_opt_max_cycles   1500
   basis2 6-31G*
   scf_algorithm rca_diis
   SYM_IGNORE  TRUE
   print_input   true
   geom_opt_dmax   80
   pop_mulliken false
   XC_GRID 000075000302
$end

$molecule
0 1
C       -5.3741762022     0.3206140201     0.0288808114
C       -4.1517453160     1.2182801665     0.0984981701
H       -5.5055436349     -0.0670596995     -0.9810963024
H       -6.2717076872     0.8728566331     0.3091293365
H       -5.2780745740     -0.5259468326     0.7102622129
O       -2.9697500545     0.5787186560     -0.3178571950
H       -4.0399664187     1.6266526441     1.1100899558
H       -4.2636889926     2.0586744099     -0.5771486644
H       -2.7481571200     -0.4655699977     0.4895516751
$end
--------------------------------------------------------------

             Standard Nuclear Orientation (Angstroms)
    I     Atom           X                Y                Z
 ----------------------------------------------------------------
    1      C      -5.3741762022     0.3206140201     0.0288808114
    2      C      -4.1517453160     1.2182801665     0.0984981701
    3      H      -5.5055436349    -0.0670596995    -0.9810963024
    4      H      -6.2717076872     0.8728566331     0.3091293365
    5      H      -5.2780745740    -0.5259468326     0.7102622129
    6      O      -2.9697500545     0.5787186560    -0.3178571950
    7      H      -4.0399664187     1.6266526441     1.1100899558
    8      H      -4.2636889926     2.0586744099    -0.5771486644
    9      H      -2.7481571200    -0.4655699977     0.4895516751
 ----------------------------------------------------------------

    7    -154.9213686720      1.96E-05 Convergence criterion met
    7    -154.9852750273      1.67E-06 Convergence criterion met
 Total energy in the final basis set = -154.98527503

                    Orbital Energies (a.u.)
 --------------------------------------------------------------

 Alpha MOs
 -- Occupied --
-19.2681 -10.3246 -10.2728  -1.0893  -0.8400  -0.7044  -0.5720  -0.5355
 -0.5120  -0.4652  -0.4559  -0.4014  -0.3546

                    Cartesian Multipole Moments
 -----------------------------------------------------------------
    Charge (ESU x 10^10)
                 0.0000
    Dipole Moment (Debye)
         X      -1.0903      Y      -0.5542      Z       1.3360
       Tot       1.8113
    Quadrupole Moments (Debye-Ang)
        XX     -12.8214     XY      -0.4547     YY     -18.9021
        XZ      -3.4132     YZ      -0.5123     ZZ     -20.1348

 Total job time:  11.71s(wall), 61.01s(cpu)
        *  Thank you very much for using Q-Chem.  Have a nice day.  *
