 Q-Chem 5.3 (devel), Q-Chem, Inc., Pleasanton, CA (2020)
 Q-Chem 5.3.0 for Intel X86 EM64T Linux

User input:
--------------------------------------------------------------
$rem
   JOBTYPE  sp
   EXCHANGE   omegaB97X-D
   BASIS   6-311+G(2df,2pd)
   UNRESTRICTED   False
   max_scf_cycles   250
   geom_opt_max_cycles   1500
   basis2 6-31G*
   scf_algorithm rca_diis
   SYM_IGNORE  TRUE
   print_input   true
   geom_opt_dmax   80
   pop_mulliken false
   XC_GRID 000075000302
$end

$molecule
0 1
C       -5.4079299556     0.3701696200     0.0172715603
C       -4.1464493628     1.2191813049     0.0914016755
H       -5.5193125665     -0.0531424043     -0.9968137984
H       -6.1264420618     0.8404337287     0.2232530564
H       -5.3350042391     -0.6010877701     0.8224697471
O       -2.9715677685     0.5069678314     -0.2605555468
H       -4.0367933264     1.6503924697     1.1315829966
H       -4.2035108303     1.9169360355     -0.4902120455
H       -2.8557998889     -0.2326308157     0.3319123549
$end
--------------------------------------------------------------

             Standard Nuclear Orientation (Angstroms)
    I     Atom           X                Y                Z
 ----------------------------------------------------------------
    1      C      -5.4079299556     0.3701696200     0.0172715603
    2      C      -4.1464493628     1.2191813049     0.0914016755
    3      H      -5.5193125665    -0.0531424043    -0.9968137984
    4      H      -6.1264420618     0.8404337287     0.2232530564
    5      H      -5.3350042391    -0.6010877701     0.8224697471
    6      O      -2.9715677685     0.5069678314    -0.2605555468
    7      H      -4.0367933264     1.6503924697     1.1315829966
    8      H      -4.2035108303     1.9169360355    -0.4902120455
    9      H      -2.8557998889    -0.2326308157     0.3319123549
 ----------------------------------------------------------------

    7    -154.8962212462      8.02E-06 Convergence criterion met
    6    -154.9688991646      5.47E-06 Convergence criterion met
 Total energy in the final basis set = -154.96889916

                    Orbital Energies (a.u.)
 --------------------------------------------------------------

 Alpha MOs
 -- Occupied --
-19.2439 -10.3124 -10.2700  -1.1238  -0.8644  -0.7440  -0.5915  -0.5611
 -0.5381  -0.4738  -0.4487  -0.4171  -0.3607

                    Cartesian Multipole Moments
 -----------------------------------------------------------------
    Charge (ESU x 10^10)
                -0.0000
    Dipole Moment (Debye)
         X      -1.2656      Y      -0.1680      Z       1.0962
       Tot       1.6827
    Quadrupole Moments (Debye-Ang)
        XX     -11.0971     XY      -1.9094     YY     -18.5170
        XZ      -2.5216     YZ      -0.3876     ZZ     -19.9031

 Total job time:  11.00s(wall), 56.76s(cpu)
        *  Thank you very much for using Q-Chem.  Have a nice day.  *
