 Q-Chem 5.3 (devel), Q-Chem, Inc., Pleasanton, CA (2020)
 Q-Chem 5.3.0 for Intel X86 EM64T Linux

User input:
--------------------------------------------------------------
$rem
   JOBTYPE  sp
   EXCHANGE   omegaB97X-D
   BASIS   6-311+G(2df,2pd)
   UNRESTRICTED   False
   max_scf_cycles   250
   geom_opt_max_cycles   1500
   basis2 6-31G*
   scf_algorithm rca_diis
   SYM_IGNORE  TRUE
   print_input   true
   geom_opt_dmax   80
   pop_mulliken false
   XC_GRID 000075000302
$end

$molecule
0 1
C       -5.3725874128     0.2591789865     0.1833798341
C       -4.1402794802     1.1354671822     0.2561740025
H       -5.2532653471     0.2388685919     -0.9041787069
H       -6.2405913427     0.9123019146     0.2832921334
H       -5.6080343205     -0.7316211688     0.5626201801
O       -3.0213373887     0.4527294480     -0.2699050568
H       -3.9012301844     1.8371599936     1.0571373715
H       -4.4063904535     1.6963464999     -0.6444418412
H       -2.6590940700     -0.1832114479     0.3462320834
$end
--------------------------------------------------------------

             Standard Nuclear Orientation (Angstroms)
    I     Atom           X                Y                Z
 ----------------------------------------------------------------
    1      C      -5.3725874128     0.2591789865     0.1833798341
    2      C      -4.1402794802     1.1354671822     0.2561740025
    3      H      -5.2532653471     0.2388685919    -0.9041787069
    4      H      -6.2405913427     0.9123019146     0.2832921334
    5      H      -5.6080343205    -0.7316211688     0.5626201801
    6      O      -3.0213373887     0.4527294480    -0.2699050568
    7      H      -3.9012301844     1.8371599936     1.0571373715
    8      H      -4.4063904535     1.6963464999    -0.6444418412
    9      H      -2.6590940700    -0.1832114479     0.3462320834
 ----------------------------------------------------------------

    6    -154.9404952316      9.68E-05 Convergence criterion met
    6    -155.0103793571      5.98E-06 Convergence criterion met
 Total energy in the final basis set = -155.01037936

                    Orbital Energies (a.u.)
 --------------------------------------------------------------

 Alpha MOs
 -- Occupied --
-19.2457 -10.3309 -10.2724  -1.1273  -0.8628  -0.7193  -0.6007  -0.5570
 -0.5267  -0.4584  -0.4432  -0.3946  -0.3671

                    Cartesian Multipole Moments
 -----------------------------------------------------------------
    Charge (ESU x 10^10)
                 0.0000
    Dipole Moment (Debye)
         X      -0.6903      Y      -0.2455      Z       1.2616
       Tot       1.4589
    Quadrupole Moments (Debye-Ang)
        XX     -14.8560     XY      -0.9516     YY     -19.0246
        XZ      -2.9692     YZ      -0.1848     ZZ     -20.2823

 Total job time:  11.02s(wall), 56.77s(cpu)
        *  Thank you very much for using Q-Chem.  Have a nice day.  *
