 Q-Chem 5.3 (devel), Q-Chem, Inc., Pleasanton, CA (2020)
 Q-Chem 5.3.0 for Intel X86 EM64T Linux

User input:
--------------------------------------------------------------
$rem
   JOBTYPE  sp
   EXCHANGE   omegaB97X-D
   BASIS   6-311+G(2df,2pd)
   UNRESTRICTED   False
   max_scf_cycles   250
   geom_opt_max_cycles   1500
   basis2 6-31G*
   scf_algorithm rca_diis
   SYM_IGNORE  TRUE
   print_input   true
   geom_opt_dmax   80
   pop_mulliken false
   XC_GRID 000075000302
$end

$molecule
0 1
C       -5.3570500578     0.3259495886     0.0309120249
C       -4.1228112719     1.1849532273     0.1203749304
H       -5.4913347883     -0.1154996650     -1.0706177668
H       -6.3484500901     0.9595466492     0.3085809611
H       -5.2976747757     -0.6250331259     0.8163596920
O       -2.9432583141     0.4939990746     -0.2447447635
H       -4.0233219911     1.6117047425     1.1391714492
H       -4.1963199977     2.0296314592     -0.5787231937
H       -2.8225887133     -0.2480319505     0.3489966665
$end
--------------------------------------------------------------

             Standard Nuclear Orientation (Angstroms)
    I     Atom           X                Y                Z
 ----------------------------------------------------------------
    1      C      -5.3570500578     0.3259495886     0.0309120249
    2      C      -4.1228112719     1.1849532273     0.1203749304
    3      H      -5.4913347883    -0.1154996650    -1.0706177668
    4      H      -6.3484500901     0.9595466492     0.3085809611
    5      H      -5.2976747757    -0.6250331259     0.8163596920
    6      O      -2.9432583141     0.4939990746    -0.2447447635
    7      H      -4.0233219911     1.6117047425     1.1391714492
    8      H      -4.1963199977     2.0296314592    -0.5787231937
    9      H      -2.8225887133    -0.2480319505     0.3489966665
 ----------------------------------------------------------------

    6    -154.9619278719      5.94E-05 Convergence criterion met
    6    -155.0287949361      6.59E-06 Convergence criterion met
 Total energy in the final basis set = -155.02879494

                    Orbital Energies (a.u.)
 --------------------------------------------------------------

 Alpha MOs
 -- Occupied --
-19.2485 -10.3328 -10.3117  -1.1282  -0.8415  -0.7084  -0.5947  -0.5401
 -0.5186  -0.4591  -0.4418  -0.4092  -0.3651

                    Cartesian Multipole Moments
 -----------------------------------------------------------------
    Charge (ESU x 10^10)
                 0.0000
    Dipole Moment (Debye)
         X      -1.0691      Y      -0.3264      Z       1.2001
       Tot       1.6400
    Quadrupole Moments (Debye-Ang)
        XX     -13.3933     XY      -1.0599     YY     -19.1388
        XZ      -3.0274     YZ      -0.2951     ZZ     -20.1871

 Total job time:  10.77s(wall), 55.27s(cpu)
        *  Thank you very much for using Q-Chem.  Have a nice day.  *
