 Q-Chem 5.3 (devel), Q-Chem, Inc., Pleasanton, CA (2020)
 Q-Chem 5.3.0 for Intel X86 EM64T Linux

User input:
--------------------------------------------------------------
$rem
   JOBTYPE  sp
   EXCHANGE   omegaB97X-D
   BASIS   6-311+G(2df,2pd)
   UNRESTRICTED   False
   max_scf_cycles   250
   geom_opt_max_cycles   1500
   basis2 6-31G*
   scf_algorithm rca_diis
   SYM_IGNORE  TRUE
   print_input   true
   geom_opt_dmax   80
   pop_mulliken false
   XC_GRID 000075000302
$end

$molecule
0 1
C       -5.3886312752     0.2955052449     0.0249825881
C       -4.1634557982     1.1849740200     0.1220540204
H       -5.4938674587     -0.0907757643     -0.9881196599
H       -6.2659643744     0.8985931222     0.2642786974
H       -5.3145943461     -0.5191623260     0.7459116199
O       -2.9686300766     0.4868048626     -0.2103716318
H       -3.9706244003     1.5929420264     1.1189681854
H       -4.2499684894     2.0311990621     -0.5611682306
H       -2.7870737809     -0.2628602479     0.3537744112
$end
--------------------------------------------------------------

             Standard Nuclear Orientation (Angstroms)
    I     Atom           X                Y                Z
 ----------------------------------------------------------------
    1      C      -5.3886312752     0.2955052449     0.0249825881
    2      C      -4.1634557982     1.1849740200     0.1220540204
    3      H      -5.4938674587    -0.0907757643    -0.9881196599
    4      H      -6.2659643744     0.8985931222     0.2642786974
    5      H      -5.3145943461    -0.5191623260     0.7459116199
    6      O      -2.9686300766     0.4868048626    -0.2103716318
    7      H      -3.9706244003     1.5929420264     1.1189681854
    8      H      -4.2499684894     2.0311990621    -0.5611682306
    9      H      -2.7870737809    -0.2628602479     0.3537744112
 ----------------------------------------------------------------

    6    -154.9789500188      8.68E-05 Convergence criterion met
    6    -155.0480076481      5.99E-06 Convergence criterion met
 Total energy in the final basis set = -155.04800765

                    Orbital Energies (a.u.)
 --------------------------------------------------------------

 Alpha MOs
 -- Occupied --
-19.2399 -10.3279 -10.2751  -1.1186  -0.8504  -0.7243  -0.5903  -0.5503
 -0.5205  -0.4728  -0.4589  -0.4027  -0.3592

                    Cartesian Multipole Moments
 -----------------------------------------------------------------
    Charge (ESU x 10^10)
                -0.0000
    Dipole Moment (Debye)
         X      -1.1505      Y      -0.4028      Z       1.2025
       Tot       1.7123
    Quadrupole Moments (Debye-Ang)
        XX     -12.1640     XY      -0.8035     YY     -18.8241
        XZ      -2.9325     YZ      -0.3613     ZZ     -19.8820

 Total job time:  10.87s(wall), 55.80s(cpu)
        *  Thank you very much for using Q-Chem.  Have a nice day.  *
