 Q-Chem 5.3 (devel), Q-Chem, Inc., Pleasanton, CA (2020)
 Q-Chem 5.3.0 for Intel X86 EM64T Linux

User input:
--------------------------------------------------------------
$rem
   JOBTYPE  sp
   EXCHANGE   omegaB97X-D
   BASIS   6-311+G(2df,2pd)
   UNRESTRICTED   False
   max_scf_cycles   250
   geom_opt_max_cycles   1500
   basis2 6-31G*
   scf_algorithm rca_diis
   SYM_IGNORE  TRUE
   print_input   true
   geom_opt_dmax   80
   pop_mulliken false
   XC_GRID 000075000302
$end

$molecule
0 1
C       -5.3624458229     0.2906436147     0.0422214663
C       -4.1284089714     1.1665518680     0.1329483029
H       -5.4810245586     -0.1013690978     -0.9624843499
H       -6.3117565094     0.9026765470     0.3081886489
H       -5.3054053868     -0.5046757237     0.7023059875
O       -2.9465590276     0.4847044260     -0.2383917047
H       -4.0344297954     1.5856422828     1.1286059399
H       -4.2111362799     2.0494781236     -0.5986069483
H       -2.8216436478     -0.2564320405     0.3555226576
$end
--------------------------------------------------------------

             Standard Nuclear Orientation (Angstroms)
    I     Atom           X                Y                Z
 ----------------------------------------------------------------
    1      C      -5.3624458229     0.2906436147     0.0422214663
    2      C      -4.1284089714     1.1665518680     0.1329483029
    3      H      -5.4810245586    -0.1013690978    -0.9624843499
    4      H      -6.3117565094     0.9026765470     0.3081886489
    5      H      -5.3054053868    -0.5046757237     0.7023059875
    6      O      -2.9465590276     0.4847044260    -0.2383917047
    7      H      -4.0344297954     1.5856422828     1.1286059399
    8      H      -4.2111362799     2.0494781236    -0.5986069483
    9      H      -2.8216436478    -0.2564320405     0.3555226576
 ----------------------------------------------------------------

    6    -154.9759753050      9.84E-05 Convergence criterion met
    6    -155.0441947212      5.89E-06 Convergence criterion met
 Total energy in the final basis set = -155.04419472

                    Orbital Energies (a.u.)
 --------------------------------------------------------------

 Alpha MOs
 -- Occupied --
-19.2476 -10.3321 -10.2750  -1.1275  -0.8490  -0.7208  -0.5984  -0.5433
 -0.5219  -0.4709  -0.4551  -0.4096  -0.3638

                    Cartesian Multipole Moments
 -----------------------------------------------------------------
    Charge (ESU x 10^10)
                 0.0000
    Dipole Moment (Debye)
         X      -1.1220      Y      -0.5132      Z       1.2858
       Tot       1.7820
    Quadrupole Moments (Debye-Ang)
        XX     -12.6316     XY      -0.1443     YY     -19.1128
        XZ      -3.4540     YZ      -0.2595     ZZ     -19.9334

 Total job time:  10.90s(wall), 56.07s(cpu)
        *  Thank you very much for using Q-Chem.  Have a nice day.  *
