 Q-Chem 5.3 (devel), Q-Chem, Inc., Pleasanton, CA (2020)
 Q-Chem 5.3.0 for Intel X86 EM64T Linux

User input:
--------------------------------------------------------------
$rem
   JOBTYPE  sp
   EXCHANGE   omegaB97X-D
   BASIS   6-311+G(2df,2pd)
   UNRESTRICTED   False
   max_scf_cycles   250
   geom_opt_max_cycles   1500
   basis2 6-31G*
   scf_algorithm rca_diis
   SYM_IGNORE  TRUE
   print_input   true
   geom_opt_dmax   80
   pop_mulliken false
   XC_GRID 000075000302
$end

$molecule
0 1
C       -5.3163525591     0.3156020556     0.0291230087
C       -4.2122437306     1.1794005128     0.1408890095
H       -5.5900081413     -0.0924578447     -0.9430278479
H       -6.3030332230     0.7046258364     0.2954889394
H       -5.4169742611     -0.5377502442     0.7077187337
O       -2.9457209454     0.5809116128     -0.2766806333
H       -3.9076922288     1.6121792036     1.0988541692
H       -3.9730863191     1.9802648355     -0.5558670477
H       -2.9376985915     -0.1255559678     0.3738116686
$end
--------------------------------------------------------------

             Standard Nuclear Orientation (Angstroms)
    I     Atom           X                Y                Z
 ----------------------------------------------------------------
    1      C      -5.3163525591     0.3156020556     0.0291230087
    2      C      -4.2122437306     1.1794005128     0.1408890095
    3      H      -5.5900081413    -0.0924578447    -0.9430278479
    4      H      -6.3030332230     0.7046258364     0.2954889394
    5      H      -5.4169742611    -0.5377502442     0.7077187337
    6      O      -2.9457209454     0.5809116128    -0.2766806333
    7      H      -3.9076922288     1.6121792036     1.0988541692
    8      H      -3.9730863191     1.9802648355    -0.5558670477
    9      H      -2.9376985915    -0.1255559678     0.3738116686
 ----------------------------------------------------------------

    7    -154.9382639416      1.46E-05 Convergence criterion met
    6    -155.0088003560      7.01E-06 Convergence criterion met
 Total energy in the final basis set = -155.00880036

                    Orbital Energies (a.u.)
 --------------------------------------------------------------

 Alpha MOs
 -- Occupied --
-19.2385 -10.3224 -10.2786  -1.1196  -0.8679  -0.7310  -0.5991  -0.5596
 -0.5180  -0.4841  -0.4292  -0.4148  -0.3621

                    Cartesian Multipole Moments
 -----------------------------------------------------------------
    Charge (ESU x 10^10)
                 0.0000
    Dipole Moment (Debye)
         X      -1.6821      Y      -0.4969      Z       1.3580
       Tot       2.2182
    Quadrupole Moments (Debye-Ang)
        XX      -7.3713     XY       0.8842     YY     -19.5377
        XZ      -3.7977     YZ      -0.1008     ZZ     -19.9626

 Total job time:  11.16s(wall), 57.65s(cpu)
        *  Thank you very much for using Q-Chem.  Have a nice day.  *
