 Q-Chem 5.3 (devel), Q-Chem, Inc., Pleasanton, CA (2020)
 Q-Chem 5.3.0 for Intel X86 EM64T Linux

User input:
--------------------------------------------------------------
$rem
   JOBTYPE  sp
   EXCHANGE   omegaB97X-D
   BASIS   6-311+G(2df,2pd)
   UNRESTRICTED   False
   max_scf_cycles   250
   geom_opt_max_cycles   1500
   basis2 6-31G*
   scf_algorithm rca_diis
   SYM_IGNORE  TRUE
   print_input   true
   geom_opt_dmax   80
   pop_mulliken false
   XC_GRID 000075000302
$end

$molecule
0 1
C       -5.4043810663     0.3479721152     0.0458186519
C       -4.1811411641     1.2594202108     0.1517790290
H       -5.4894092244     -0.1441682832     -0.9246097568
H       -6.2710399528     0.9528826692     0.3136499725
H       -5.3399098982     -0.5587770164     0.6550743248
O       -2.9664416509     0.5861526052     -0.2189083349
H       -3.9694415889     1.4280281398     1.2029997323
H       -4.1577856650     1.9076298414     -0.7158364801
H       -2.8232597894     -0.1619202820     0.3603428615
$end
--------------------------------------------------------------

             Standard Nuclear Orientation (Angstroms)
    I     Atom           X                Y                Z
 ----------------------------------------------------------------
    1      C      -5.4043810663     0.3479721152     0.0458186519
    2      C      -4.1811411641     1.2594202108     0.1517790290
    3      H      -5.4894092244    -0.1441682832    -0.9246097568
    4      H      -6.2710399528     0.9528826692     0.3136499725
    5      H      -5.3399098982    -0.5587770164     0.6550743248
    6      O      -2.9664416509     0.5861526052    -0.2189083349
    7      H      -3.9694415889     1.4280281398     1.2029997323
    8      H      -4.1577856650     1.9076298414    -0.7158364801
    9      H      -2.8232597894    -0.1619202820     0.3603428615
 ----------------------------------------------------------------

    6    -154.9554978405      9.81E-05 Convergence criterion met
    6    -155.0253396650      5.70E-06 Convergence criterion met
 Total energy in the final basis set = -155.02533966

                    Orbital Energies (a.u.)
 --------------------------------------------------------------

 Alpha MOs
 -- Occupied --
-19.2372 -10.3293 -10.2752  -1.1183  -0.8487  -0.7235  -0.6046  -0.5450
 -0.5167  -0.4681  -0.4481  -0.4138  -0.3545

                    Cartesian Multipole Moments
 -----------------------------------------------------------------
    Charge (ESU x 10^10)
                 0.0000
    Dipole Moment (Debye)
         X      -1.1824      Y      -0.5770      Z       1.2018
       Tot       1.7819
    Quadrupole Moments (Debye-Ang)
        XX     -12.3271     XY       0.0757     YY     -19.5264
        XZ      -3.0772     YZ      -0.3027     ZZ     -19.6547

 Total job time:  10.87s(wall), 56.01s(cpu)
        *  Thank you very much for using Q-Chem.  Have a nice day.  *
