 Q-Chem 5.3 (devel), Q-Chem, Inc., Pleasanton, CA (2020)
 Q-Chem 5.3.0 for Intel X86 EM64T Linux

User input:
--------------------------------------------------------------
$rem
   JOBTYPE  sp
   EXCHANGE   omegaB97X-D
   BASIS   6-311+G(2df,2pd)
   UNRESTRICTED   False
   max_scf_cycles   250
   geom_opt_max_cycles   1500
   basis2 6-31G*
   scf_algorithm rca_diis
   SYM_IGNORE  TRUE
   print_input   true
   geom_opt_dmax   80
   pop_mulliken false
   XC_GRID 000075000302
$end

$molecule
0 1
C       -5.4566814475     0.2489398465     0.0086069312
C       -4.0870565597     0.9947412270     0.0620024546
H       -5.8255279615     -0.0878962469     -0.9604736439
H       -6.0727607588     1.1029536477     0.3103544434
H       -5.6253355405     -0.5376185733     0.7440547715
O       -2.7026130994     0.7094051839     -0.1491439332
H       -4.1878928039     1.3791922114     1.0844965861
H       -4.2279721651     1.8607106006     -0.5845281585
H       -2.4169696635     -0.0532078968     0.3549405488
$end
--------------------------------------------------------------

             Standard Nuclear Orientation (Angstroms)
    I     Atom           X                Y                Z
 ----------------------------------------------------------------
    1      C      -5.4566814475     0.2489398465     0.0086069312
    2      C      -4.0870565597     0.9947412270     0.0620024546
    3      H      -5.8255279615    -0.0878962469    -0.9604736439
    4      H      -6.0727607588     1.1029536477     0.3103544434
    5      H      -5.6253355405    -0.5376185733     0.7440547715
    6      O      -2.7026130994     0.7094051839    -0.1491439332
    7      H      -4.1878928039     1.3791922114     1.0844965861
    8      H      -4.2279721651     1.8607106006    -0.5845281585
    9      H      -2.4169696635    -0.0532078968     0.3549405488
 ----------------------------------------------------------------

    7    -154.9544132921      8.26E-06 Convergence criterion met
    6    -155.0227633192      5.66E-06 Convergence criterion met
 Total energy in the final basis set = -155.02276332

                    Orbital Energies (a.u.)
 --------------------------------------------------------------

 Alpha MOs
 -- Occupied --
-19.2528 -10.3320 -10.2852  -1.1217  -0.8562  -0.7231  -0.5950  -0.5434
 -0.5122  -0.4718  -0.4547  -0.4132  -0.3572

                    Cartesian Multipole Moments
 -----------------------------------------------------------------
    Charge (ESU x 10^10)
                 0.0000
    Dipole Moment (Debye)
         X      -1.1820      Y      -0.8615      Z       1.0486
       Tot       1.7997
    Quadrupole Moments (Debye-Ang)
        XX     -11.2181     XY       0.3188     YY     -20.2509
        XZ      -2.4882     YZ      -0.2647     ZZ     -20.0740

 Total job time:  10.83s(wall), 56.08s(cpu)
        *  Thank you very much for using Q-Chem.  Have a nice day.  *
