 Q-Chem 5.3 (devel), Q-Chem, Inc., Pleasanton, CA (2020)
 Q-Chem 5.3.0 for Intel X86 EM64T Linux

User input:
--------------------------------------------------------------
$rem
   JOBTYPE  sp
   EXCHANGE   omegaB97X-D
   BASIS   6-311+G(2df,2pd)
   UNRESTRICTED   False
   max_scf_cycles   250
   geom_opt_max_cycles   1500
   basis2 6-31G*
   scf_algorithm rca_diis
   SYM_IGNORE  TRUE
   print_input   true
   geom_opt_dmax   80
   pop_mulliken false
   XC_GRID 000075000302
$end

$molecule
0 1
C       -5.3918047139     0.3280936702     0.0183041720
C       -4.1341184888     1.1593018592     0.1536439332
H       -5.4907534920     -0.0360075065     -0.9128630906
H       -6.1884127697     0.8456428878     0.2526726043
H       -5.3306959608     -0.6333578925     0.7974969745
O       -2.9595548248     0.4746538345     -0.2265982835
H       -4.0497240511     1.5578368910     1.1140803932
H       -4.2089267773     2.1960564641     -0.6909702012
H       -2.8488189215     -0.2750002077     0.3645434981
$end
--------------------------------------------------------------

             Standard Nuclear Orientation (Angstroms)
    I     Atom           X                Y                Z
 ----------------------------------------------------------------
    1      C      -5.3918047139     0.3280936702     0.0183041720
    2      C      -4.1341184888     1.1593018592     0.1536439332
    3      H      -5.4907534920    -0.0360075065    -0.9128630906
    4      H      -6.1884127697     0.8456428878     0.2526726043
    5      H      -5.3306959608    -0.6333578925     0.7974969745
    6      O      -2.9595548248     0.4746538345    -0.2265982835
    7      H      -4.0497240511     1.5578368910     1.1140803932
    8      H      -4.2089267773     2.1960564641    -0.6909702012
    9      H      -2.8488189215    -0.2750002077     0.3645434981
 ----------------------------------------------------------------

    7    -154.9318984963      1.05E-05 Convergence criterion met
    6    -155.0012736693      6.09E-06 Convergence criterion met
 Total energy in the final basis set = -155.00127367

                    Orbital Energies (a.u.)
 --------------------------------------------------------------

 Alpha MOs
 -- Occupied --
-19.2503 -10.3462 -10.2700  -1.1297  -0.8555  -0.7197  -0.6070  -0.5429
 -0.5165  -0.4874  -0.4522  -0.3927  -0.3678

                    Cartesian Multipole Moments
 -----------------------------------------------------------------
    Charge (ESU x 10^10)
                -0.0000
    Dipole Moment (Debye)
         X      -1.2170      Y      -0.5224      Z       1.2991
       Tot       1.8552
    Quadrupole Moments (Debye-Ang)
        XX     -11.5561     XY      -0.2867     YY     -19.5642
        XZ      -3.4051     YZ      -0.0730     ZZ     -19.8986

 Total job time:  11.09s(wall), 57.20s(cpu)
        *  Thank you very much for using Q-Chem.  Have a nice day.  *
