 Q-Chem 5.3 (devel), Q-Chem, Inc., Pleasanton, CA (2020)
 Q-Chem 5.3.0 for Intel X86 EM64T Linux

User input:
--------------------------------------------------------------
$rem
   JOBTYPE  sp
   EXCHANGE   omegaB97X-D
   BASIS   6-311+G(2df,2pd)
   UNRESTRICTED   False
   max_scf_cycles   250
   geom_opt_max_cycles   1500
   basis2 6-31G*
   scf_algorithm rca_diis
   SYM_IGNORE  TRUE
   print_input   true
   geom_opt_dmax   80
   pop_mulliken false
   XC_GRID 000075000302
$end

$molecule
0 1
C       -5.3048995290     0.3189510943     0.0281516018
C       -4.2301492236     1.1744727948     0.1430599257
H       -5.6139369265     -0.0911320026     -0.9323043112
H       -6.3084111170     0.6636094997     0.2952788171
H       -5.4450098856     -0.5338290565     0.7015028735
O       -2.9387398209     0.6078584210     -0.2836056119
H       -3.8819651313     1.6083456573     1.0850524063
H       -3.9204563075     1.9591691502     -0.5436141621
H       -2.9592420584     -0.0902255581     0.3767884609
$end
--------------------------------------------------------------

             Standard Nuclear Orientation (Angstroms)
    I     Atom           X                Y                Z
 ----------------------------------------------------------------
    1      C      -5.3048995290     0.3189510943     0.0281516018
    2      C      -4.2301492236     1.1744727948     0.1430599257
    3      H      -5.6139369265    -0.0911320026    -0.9323043112
    4      H      -6.3084111170     0.6636094997     0.2952788171
    5      H      -5.4450098856    -0.5338290565     0.7015028735
    6      O      -2.9387398209     0.6078584210    -0.2836056119
    7      H      -3.8819651313     1.6083456573     1.0850524063
    8      H      -3.9204563075     1.9591691502    -0.5436141621
    9      H      -2.9592420584    -0.0902255581     0.3767884609
 ----------------------------------------------------------------

    7    -154.9133955804      1.68E-05 Convergence criterion met
    6    -154.9852586641      7.48E-06 Convergence criterion met
 Total energy in the final basis set = -154.98525866

                    Orbital Energies (a.u.)
 --------------------------------------------------------------

 Alpha MOs
 -- Occupied --
-19.2378 -10.3205 -10.2795  -1.1203  -0.8740  -0.7336  -0.6048  -0.5686
 -0.5132  -0.4877  -0.4239  -0.4073  -0.3613

                    Cartesian Multipole Moments
 -----------------------------------------------------------------
    Charge (ESU x 10^10)
                 0.0000
    Dipole Moment (Debye)
         X      -1.7925      Y      -0.5434      Z       1.3767
       Tot       2.3246
    Quadrupole Moments (Debye-Ang)
        XX      -6.2520     XY       1.3303     YY     -19.8008
        XZ      -3.9115     YZ      -0.0419     ZZ     -20.0244

 Total job time:  11.09s(wall), 57.23s(cpu)
        *  Thank you very much for using Q-Chem.  Have a nice day.  *
