 Q-Chem 5.3 (devel), Q-Chem, Inc., Pleasanton, CA (2020)
 Q-Chem 5.3.0 for Intel X86 EM64T Linux

User input:
--------------------------------------------------------------
$rem
   JOBTYPE  sp
   EXCHANGE   omegaB97X-D
   BASIS   6-311+G(2df,2pd)
   UNRESTRICTED   False
   max_scf_cycles   250
   geom_opt_max_cycles   1500
   basis2 6-31G*
   scf_algorithm rca_diis
   SYM_IGNORE  TRUE
   print_input   true
   geom_opt_dmax   80
   pop_mulliken false
   XC_GRID 000075000302
$end

$molecule
0 1
C       -5.3684494238     0.3229588001     0.0446928957
C       -4.1295367966     1.2077375822     0.1712144783
H       -5.4783381166     -0.0604695961     -0.9562691666
H       -6.2821917417     0.9082297662     0.3053650637
H       -5.3087333444     -0.5403861060     0.7448420160
O       -2.9471992940     0.5159866407     -0.2157304379
H       -4.0670283210     1.5000120744     0.8889419710
H       -4.1969899102     1.9936990588     -0.4823961798
H       -2.8243430515     -0.2305482203     0.3696493597
$end
--------------------------------------------------------------

             Standard Nuclear Orientation (Angstroms)
    I     Atom           X                Y                Z
 ----------------------------------------------------------------
    1      C      -5.3684494238     0.3229588001     0.0446928957
    2      C      -4.1295367966     1.2077375822     0.1712144783
    3      H      -5.4783381166    -0.0604695961    -0.9562691666
    4      H      -6.2821917417     0.9082297662     0.3053650637
    5      H      -5.3087333444    -0.5403861060     0.7448420160
    6      O      -2.9471992940     0.5159866407    -0.2157304379
    7      H      -4.0670283210     1.5000120744     0.8889419710
    8      H      -4.1969899102     1.9936990588    -0.4823961798
    9      H      -2.8243430515    -0.2305482203     0.3696493597
 ----------------------------------------------------------------

    7    -154.8538250183      9.91E-06 Convergence criterion met
    6    -154.9294002420      5.80E-06 Convergence criterion met
 Total energy in the final basis set = -154.92940024

                    Orbital Energies (a.u.)
 --------------------------------------------------------------

 Alpha MOs
 -- Occupied --
-19.2418 -10.2854 -10.2766  -1.1223  -0.8653  -0.7486  -0.6253  -0.5459
 -0.5209  -0.4760  -0.4553  -0.4207  -0.3652

                    Cartesian Multipole Moments
 -----------------------------------------------------------------
    Charge (ESU x 10^10)
                 0.0000
    Dipole Moment (Debye)
         X      -1.1996      Y      -0.2538      Z       1.3537
       Tot       1.8265
    Quadrupole Moments (Debye-Ang)
        XX     -11.9098     XY      -1.3636     YY     -18.2660
        XZ      -3.7376     YZ      -0.0079     ZZ     -19.5638

 Total job time:  11.25s(wall), 57.93s(cpu)
        *  Thank you very much for using Q-Chem.  Have a nice day.  *
