 Q-Chem 5.3 (devel), Q-Chem, Inc., Pleasanton, CA (2020)
 Q-Chem 5.3.0 for Intel X86 EM64T Linux

User input:
--------------------------------------------------------------
$rem
   JOBTYPE  sp
   EXCHANGE   omegaB97X-D
   BASIS   6-311+G(2df,2pd)
   UNRESTRICTED   False
   max_scf_cycles   250
   geom_opt_max_cycles   1500
   basis2 6-31G*
   scf_algorithm rca_diis
   SYM_IGNORE  TRUE
   print_input   true
   geom_opt_dmax   80
   pop_mulliken false
   XC_GRID 000075000302
$end

$molecule
0 1
C       -5.3467451599     0.2581724011     0.0167017486
C       -4.1162148971     1.1686918097     0.1171187104
H       -5.5164480108     0.1314051636     -1.0471548495
H       -6.3188514618     0.7065081544     0.2620206020
H       -5.3493186024     -0.3708794600     0.9041145568
O       -2.9248919177     0.5136851968     -0.2422335010
H       -4.0354695768     1.4985086403     1.1545283645
H       -4.2023932430     1.9381973928     -0.6440616815
H       -2.7924771303     -0.2270692986     0.3492760500
$end
--------------------------------------------------------------

             Standard Nuclear Orientation (Angstroms)
    I     Atom           X                Y                Z
 ----------------------------------------------------------------
    1      C      -5.3467451599     0.2581724011     0.0167017486
    2      C      -4.1162148971     1.1686918097     0.1171187104
    3      H      -5.5164480108     0.1314051636    -1.0471548495
    4      H      -6.3188514618     0.7065081544     0.2620206020
    5      H      -5.3493186024    -0.3708794600     0.9041145568
    6      O      -2.9248919177     0.5136851968    -0.2422335010
    7      H      -4.0354695768     1.4985086403     1.1545283645
    8      H      -4.2023932430     1.9381973928    -0.6440616815
    9      H      -2.7924771303    -0.2270692986     0.3492760500
 ----------------------------------------------------------------

    7    -154.9528480502      9.14E-06 Convergence criterion met
    6    -155.0226321505      6.52E-06 Convergence criterion met
 Total energy in the final basis set = -155.02263215

                    Orbital Energies (a.u.)
 --------------------------------------------------------------

 Alpha MOs
 -- Occupied --
-19.2454 -10.3266 -10.2750  -1.1290  -0.8510  -0.7234  -0.6040  -0.5523
 -0.5271  -0.4867  -0.4207  -0.4126  -0.3590

                    Cartesian Multipole Moments
 -----------------------------------------------------------------
    Charge (ESU x 10^10)
                 0.0000
    Dipole Moment (Debye)
         X      -1.2937      Y      -0.3561      Z       1.2832
       Tot       1.8567
    Quadrupole Moments (Debye-Ang)
        XX     -10.7605     XY      -0.9958     YY     -20.2039
        XZ      -3.4348     YZ      -0.7980     ZZ     -19.1213

 Total job time:  11.08s(wall), 57.12s(cpu)
        *  Thank you very much for using Q-Chem.  Have a nice day.  *
