 Q-Chem 5.3 (devel), Q-Chem, Inc., Pleasanton, CA (2020)
 Q-Chem 5.3.0 for Intel X86 EM64T Linux

User input:
--------------------------------------------------------------
$rem
   JOBTYPE  sp
   EXCHANGE   omegaB97X-D
   BASIS   6-311+G(2df,2pd)
   UNRESTRICTED   False
   max_scf_cycles   250
   geom_opt_max_cycles   1500
   basis2 6-31G*
   scf_algorithm rca_diis
   SYM_IGNORE  TRUE
   print_input   true
   geom_opt_dmax   80
   pop_mulliken false
   XC_GRID 000075000302
$end

$molecule
0 1
C       -5.3914755636     0.3480495979     0.0522282906
C       -4.1497600971     1.1882064707     0.1279679238
H       -5.4779229179     -0.2958975488     -0.8291600277
H       -6.1930360024     1.0339967441     0.3007332255
H       -5.3025120698     -0.6445314826     0.5103197771
O       -2.9769173681     0.4715589581     -0.2444464960
H       -4.0357278326     1.6992610556     1.0960544486
H       -4.2152797998     2.0850572941     -0.4945241532
H       -2.8601783486     -0.2684810890     0.3511370114
$end
--------------------------------------------------------------

             Standard Nuclear Orientation (Angstroms)
    I     Atom           X                Y                Z
 ----------------------------------------------------------------
    1      C      -5.3914755636     0.3480495979     0.0522282906
    2      C      -4.1497600971     1.1882064707     0.1279679238
    3      H      -5.4779229179    -0.2958975488    -0.8291600277
    4      H      -6.1930360024     1.0339967441     0.3007332255
    5      H      -5.3025120698    -0.6445314826     0.5103197771
    6      O      -2.9769173681     0.4715589581    -0.2444464960
    7      H      -4.0357278326     1.6992610556     1.0960544486
    8      H      -4.2152797998     2.0850572941    -0.4945241532
    9      H      -2.8601783486    -0.2684810890     0.3511370114
 ----------------------------------------------------------------

    7    -154.9503515295      9.83E-06 Convergence criterion met
    6    -155.0206166848      5.65E-06 Convergence criterion met
 Total energy in the final basis set = -155.02061668

                    Orbital Energies (a.u.)
 --------------------------------------------------------------

 Alpha MOs
 -- Occupied --
-19.2472 -10.3292 -10.2762  -1.1236  -0.8557  -0.7319  -0.6024  -0.5479
 -0.5189  -0.5004  -0.4347  -0.3901  -0.3628

                    Cartesian Multipole Moments
 -----------------------------------------------------------------
    Charge (ESU x 10^10)
                 0.0000
    Dipole Moment (Debye)
         X      -1.1161      Y      -0.4833      Z       1.2002
       Tot       1.7087
    Quadrupole Moments (Debye-Ang)
        XX     -12.8500     XY      -0.1718     YY     -17.6835
        XZ      -3.1072     YZ       0.2938     ZZ     -21.0989

 Total job time:  11.11s(wall), 57.29s(cpu)
        *  Thank you very much for using Q-Chem.  Have a nice day.  *
