 Q-Chem 5.3 (devel), Q-Chem, Inc., Pleasanton, CA (2020)
 Q-Chem 5.3.0 for Intel X86 EM64T Linux

User input:
--------------------------------------------------------------
$rem
   JOBTYPE  sp
   EXCHANGE   omegaB97X-D
   BASIS   6-311+G(2df,2pd)
   UNRESTRICTED   False
   max_scf_cycles   250
   geom_opt_max_cycles   1500
   basis2 6-31G*
   scf_algorithm rca_diis
   SYM_IGNORE  TRUE
   print_input   true
   geom_opt_dmax   80
   pop_mulliken false
   XC_GRID 000075000302
$end

$molecule
0 1
C       -5.3655339649     0.3181436542     0.0334379758
C       -4.1279536764     1.1823155925     0.1214781809
H       -5.4909018019     -0.1023749411     -1.0209618953
H       -6.3068641223     0.9234691717     0.2978811092
H       -5.3051023574     -0.5769377266     0.7744142230
O       -2.9480628810     0.4921382996     -0.2443421732
H       -4.0293051775     1.6067830064     1.1342697573
H       -4.2026785176     2.0229507463     -0.5751597206
H       -2.8264075008     -0.2492678030     0.3492925429
$end
--------------------------------------------------------------

             Standard Nuclear Orientation (Angstroms)
    I     Atom           X                Y                Z
 ----------------------------------------------------------------
    1      C      -5.3655339649     0.3181436542     0.0334379758
    2      C      -4.1279536764     1.1823155925     0.1214781809
    3      H      -5.4909018019    -0.1023749411    -1.0209618953
    4      H      -6.3068641223     0.9234691717     0.2978811092
    5      H      -5.3051023574    -0.5769377266     0.7744142230
    6      O      -2.9480628810     0.4921382996    -0.2443421732
    7      H      -4.0293051775     1.6067830064     1.1342697573
    8      H      -4.2026785176     2.0229507463    -0.5751597206
    9      H      -2.8264075008    -0.2492678030     0.3492925429
 ----------------------------------------------------------------

    6    -154.9774013385      7.67E-05 Convergence criterion met
    6    -155.0447672019      5.98E-06 Convergence criterion met
 Total energy in the final basis set = -155.04476720

                    Orbital Energies (a.u.)
 --------------------------------------------------------------

 Alpha MOs
 -- Occupied --
-19.2473 -10.3299 -10.2937  -1.1270  -0.8448  -0.7155  -0.5954  -0.5421
 -0.5209  -0.4642  -0.4500  -0.4108  -0.3639

                    Cartesian Multipole Moments
 -----------------------------------------------------------------
    Charge (ESU x 10^10)
                 0.0000
    Dipole Moment (Debye)
         X      -1.1260      Y      -0.3741      Z       1.2231
       Tot       1.7041
    Quadrupole Moments (Debye-Ang)
        XX     -12.7110     XY      -0.8381     YY     -19.0494
        XZ      -3.1525     YZ      -0.2998     ZZ     -20.0637

 Total job time:  10.88s(wall), 55.98s(cpu)
        *  Thank you very much for using Q-Chem.  Have a nice day.  *
