 Q-Chem 5.3 (devel), Q-Chem, Inc., Pleasanton, CA (2020)
 Q-Chem 5.3.0 for Intel X86 EM64T Linux

User input:
--------------------------------------------------------------
$rem
   JOBTYPE  sp
   EXCHANGE   omegaB97X-D
   BASIS   6-311+G(2df,2pd)
   UNRESTRICTED   False
   max_scf_cycles   250
   geom_opt_max_cycles   1500
   basis2 6-31G*
   scf_algorithm rca_diis
   SYM_IGNORE  TRUE
   print_input   true
   geom_opt_dmax   80
   pop_mulliken false
   XC_GRID 000075000302
$end

$molecule
0 1
C       -5.3746107895     0.3057461430     0.0394816945
C       -4.1245826406     1.1604227433     0.1351426874
H       -5.4836812729     -0.1006924242     -0.9659066182
H       -6.2624219809     0.8951279959     0.2751121605
H       -5.3321166142     -0.5290906381     0.7435890109
O       -2.9465428409     0.4457219289     -0.2047763920
H       -4.0340354509     1.5901751359     1.1391149575
H       -4.1815053643     1.9942560304     -0.5685297565
H       -2.8633130457     -0.1444469151     0.2770822560
$end
--------------------------------------------------------------

             Standard Nuclear Orientation (Angstroms)
    I     Atom           X                Y                Z
 ----------------------------------------------------------------
    1      C      -5.3746107895     0.3057461430     0.0394816945
    2      C      -4.1245826406     1.1604227433     0.1351426874
    3      H      -5.4836812729    -0.1006924242    -0.9659066182
    4      H      -6.2624219809     0.8951279959     0.2751121605
    5      H      -5.3321166142    -0.5290906381     0.7435890109
    6      O      -2.9465428409     0.4457219289    -0.2047763920
    7      H      -4.0340354509     1.5901751359     1.1391149575
    8      H      -4.1815053643     1.9942560304    -0.5685297565
    9      H      -2.8633130457    -0.1444469151     0.2770822560
 ----------------------------------------------------------------

    6    -154.9211996895      4.45E-05 Convergence criterion met
    6    -154.9932249620      4.96E-06 Convergence criterion met
 Total energy in the final basis set = -154.99322496

                    Orbital Energies (a.u.)
 --------------------------------------------------------------

 Alpha MOs
 -- Occupied --
-19.2268 -10.3302 -10.2760  -1.1746  -0.8605  -0.7388  -0.6110  -0.5502
 -0.5275  -0.4726  -0.4608  -0.4172  -0.3696

                    Cartesian Multipole Moments
 -----------------------------------------------------------------
    Charge (ESU x 10^10)
                 0.0000
    Dipole Moment (Debye)
         X      -1.2876      Y      -0.2507      Z       1.1549
       Tot       1.7477
    Quadrupole Moments (Debye-Ang)
        XX     -11.1351     XY      -1.0650     YY     -18.7835
        XZ      -3.0712     YZ      -0.2110     ZZ     -19.7404

 Total job time:  10.86s(wall), 55.79s(cpu)
        *  Thank you very much for using Q-Chem.  Have a nice day.  *
