 Q-Chem 5.3 (devel), Q-Chem, Inc., Pleasanton, CA (2020)
 Q-Chem 5.3.0 for Intel X86 EM64T Linux

User input:
--------------------------------------------------------------
$rem
   JOBTYPE  sp
   EXCHANGE   omegaB97X-D
   BASIS   6-311+G(2df,2pd)
   UNRESTRICTED   False
   max_scf_cycles   250
   geom_opt_max_cycles   1500
   basis2 6-31G*
   scf_algorithm rca_diis
   SYM_IGNORE  TRUE
   print_input   true
   geom_opt_dmax   80
   pop_mulliken false
   XC_GRID 000075000302
$end

$molecule
0 1
C       -5.3858087092     0.3518782646     -0.0434944756
C       -4.1353470044     1.2020178998     0.0711385387
H       -5.2093772408     -0.1642290840     -0.9792689723
H       -6.1845208726     0.7612235152     0.5779518602
H       -5.6432605616     -0.4313835295     0.6882406278
O       -2.9604950716     0.4859765128     -0.2479299255
H       -4.0589762425     1.6179902906     1.0816319508
H       -4.2113271590     2.0679598835     -0.5900826824
H       -2.8136971382     -0.2742137531     0.3121230785
$end
--------------------------------------------------------------

             Standard Nuclear Orientation (Angstroms)
    I     Atom           X                Y                Z
 ----------------------------------------------------------------
    1      C      -5.3858087092     0.3518782646    -0.0434944756
    2      C      -4.1353470044     1.2020178998     0.0711385387
    3      H      -5.2093772408    -0.1642290840    -0.9792689723
    4      H      -6.1845208726     0.7612235152     0.5779518602
    5      H      -5.6432605616    -0.4313835295     0.6882406278
    6      O      -2.9604950716     0.4859765128    -0.2479299255
    7      H      -4.0589762425     1.6179902906     1.0816319508
    8      H      -4.2113271590     2.0679598835    -0.5900826824
    9      H      -2.8136971382    -0.2742137531     0.3121230785
 ----------------------------------------------------------------

    6    -154.9233719375      9.85E-05 Convergence criterion met
    6    -154.9953106555      6.93E-06 Convergence criterion met
 Total energy in the final basis set = -154.99531066

                    Orbital Energies (a.u.)
 --------------------------------------------------------------

 Alpha MOs
 -- Occupied --
-19.2449 -10.3299 -10.2751  -1.1247  -0.8568  -0.7345  -0.6012  -0.5729
 -0.5309  -0.4763  -0.4161  -0.3985  -0.3507

                    Cartesian Multipole Moments
 -----------------------------------------------------------------
    Charge (ESU x 10^10)
                 0.0000
    Dipole Moment (Debye)
         X      -1.1068      Y      -0.5940      Z       1.5063
       Tot       1.9613
    Quadrupole Moments (Debye-Ang)
        XX     -12.8644     XY       0.6975     YY     -19.2707
        XZ      -5.8932     YZ       0.1404     ZZ     -19.8422

 Total job time:  10.92s(wall), 56.14s(cpu)
        *  Thank you very much for using Q-Chem.  Have a nice day.  *
