 Q-Chem 5.3 (devel), Q-Chem, Inc., Pleasanton, CA (2020)
 Q-Chem 5.3.0 for Intel X86 EM64T Linux

User input:
--------------------------------------------------------------
$rem
   JOBTYPE  sp
   EXCHANGE   omegaB97X-D
   BASIS   6-311+G(2df,2pd)
   UNRESTRICTED   False
   max_scf_cycles   250
   geom_opt_max_cycles   1500
   basis2 6-31G*
   scf_algorithm rca_diis
   SYM_IGNORE  TRUE
   print_input   true
   geom_opt_dmax   80
   pop_mulliken false
   XC_GRID 000075000302
$end

$molecule
0 1
C       -5.3729973731     0.3548057091     -0.0588948944
C       -4.0971353848     1.1402514956     0.1486356129
H       -5.5280174103     -0.1236122767     -1.0240949962
H       -6.2581075613     0.8642734065     0.3214776442
H       -5.2262607759     -0.4481765291     0.6734604408
O       -2.9295726597     0.4749170367     -0.2489245295
H       -3.8680117369     1.5723296260     1.1268213183
H       -4.3518873156     1.9527947530     -0.5296525302
H       -2.9708197822     -0.1703632210     0.4614819342
$end
--------------------------------------------------------------

             Standard Nuclear Orientation (Angstroms)
    I     Atom           X                Y                Z
 ----------------------------------------------------------------
    1      C      -5.3729973731     0.3548057091    -0.0588948944
    2      C      -4.0971353848     1.1402514956     0.1486356129
    3      H      -5.5280174103    -0.1236122767    -1.0240949962
    4      H      -6.2581075613     0.8642734065     0.3214776442
    5      H      -5.2262607759    -0.4481765291     0.6734604408
    6      O      -2.9295726597     0.4749170367    -0.2489245295
    7      H      -3.8680117369     1.5723296260     1.1268213183
    8      H      -4.3518873156     1.9527947530    -0.5296525302
    9      H      -2.9708197822    -0.1703632210     0.4614819342
 ----------------------------------------------------------------

    7    -154.9585915662      8.06E-06 Convergence criterion met
    6    -155.0269744802      5.53E-06 Convergence criterion met
 Total energy in the final basis set = -155.02697448

                    Orbital Energies (a.u.)
 --------------------------------------------------------------

 Alpha MOs
 -- Occupied --
-19.2524 -10.3257 -10.2772  -1.1424  -0.8543  -0.7153  -0.6000  -0.5459
 -0.5348  -0.4922  -0.4571  -0.3934  -0.3679

                    Cartesian Multipole Moments
 -----------------------------------------------------------------
    Charge (ESU x 10^10)
                 0.0000
    Dipole Moment (Debye)
         X      -1.3660      Y      -0.2827      Z       1.3536
       Tot       1.9437
    Quadrupole Moments (Debye-Ang)
        XX     -10.7855     XY      -0.8513     YY     -19.6676
        XZ      -3.3252     YZ       0.1227     ZZ     -19.5219

 Total job time:  11.19s(wall), 57.85s(cpu)
        *  Thank you very much for using Q-Chem.  Have a nice day.  *
