 Q-Chem 5.3 (devel), Q-Chem, Inc., Pleasanton, CA (2020)
 Q-Chem 5.3.0 for Intel X86 EM64T Linux

User input:
--------------------------------------------------------------
$rem
   JOBTYPE  sp
   EXCHANGE   omegaB97X-D
   BASIS   6-311+G(2df,2pd)
   UNRESTRICTED   False
   max_scf_cycles   250
   geom_opt_max_cycles   1500
   basis2 6-31G*
   scf_algorithm rca_diis
   SYM_IGNORE  TRUE
   print_input   true
   geom_opt_dmax   80
   pop_mulliken false
   XC_GRID 000075000302
$end

$molecule
0 1
C       -5.3729429030     0.2828187456     0.1016654530
C       -4.1604540306     1.2010912124     0.1037710203
H       -5.4652286374     -0.0595401616     -0.9299612286
H       -6.2616286503     0.8981399862     0.2562219950
H       -5.3725689121     -0.5745625935     0.7736834641
O       -2.9705721453     0.4958979486     -0.2359166605
H       -4.1477820603     1.6128464873     1.1212776696
H       -4.1105129837     2.0435247694     -0.5868061823
H       -2.7411196772     -0.2829963943     0.2663744695
$end
--------------------------------------------------------------

             Standard Nuclear Orientation (Angstroms)
    I     Atom           X                Y                Z
 ----------------------------------------------------------------
    1      C      -5.3729429030     0.2828187456     0.1016654530
    2      C      -4.1604540306     1.2010912124     0.1037710203
    3      H      -5.4652286374    -0.0595401616    -0.9299612286
    4      H      -6.2616286503     0.8981399862     0.2562219950
    5      H      -5.3725689121    -0.5745625935     0.7736834641
    6      O      -2.9705721453     0.4958979486    -0.2359166605
    7      H      -4.1477820603     1.6128464873     1.1212776696
    8      H      -4.1105129837     2.0435247694    -0.5868061823
    9      H      -2.7411196772    -0.2829963943     0.2663744695
 ----------------------------------------------------------------

    6    -154.9716305904      8.95E-05 Convergence criterion met
    6    -155.0408818482      6.08E-06 Convergence criterion met
 Total energy in the final basis set = -155.04088185

                    Orbital Energies (a.u.)
 --------------------------------------------------------------

 Alpha MOs
 -- Occupied --
-19.2407 -10.3306 -10.2742  -1.1168  -0.8509  -0.7279  -0.5972  -0.5452
 -0.5199  -0.4688  -0.4512  -0.4079  -0.3559

                    Cartesian Multipole Moments
 -----------------------------------------------------------------
    Charge (ESU x 10^10)
                 0.0000
    Dipole Moment (Debye)
         X      -1.0649      Y      -0.4807      Z       1.1329
       Tot       1.6274
    Quadrupole Moments (Debye-Ang)
        XX     -12.7100     XY      -0.5241     YY     -18.6112
        XZ      -3.1534     YZ      -0.5734     ZZ     -20.2115

 Total job time:  10.83s(wall), 55.77s(cpu)
        *  Thank you very much for using Q-Chem.  Have a nice day.  *
