 Q-Chem 5.3 (devel), Q-Chem, Inc., Pleasanton, CA (2020)
 Q-Chem 5.3.0 for Intel X86 EM64T Linux

User input:
--------------------------------------------------------------
$rem
   JOBTYPE  sp
   EXCHANGE   omegaB97X-D
   BASIS   6-311+G(2df,2pd)
   UNRESTRICTED   False
   max_scf_cycles   250
   geom_opt_max_cycles   1500
   basis2 6-31G*
   scf_algorithm rca_diis
   SYM_IGNORE  TRUE
   print_input   true
   geom_opt_dmax   80
   pop_mulliken false
   XC_GRID 000075000302
$end

$molecule
0 1
C       -5.3488593012     0.2878400013     0.0301030311
C       -4.1029441209     1.1374160001     0.1059410578
H       -5.4830457159     -0.0476472240     -0.9970277615
H       -6.2605800829     0.8380480057     0.2700626860
H       -5.2858367765     -0.5016377200     0.7803406701
O       -2.9529927871     0.4274948769     -0.2605211993
H       -4.0815348556     1.7129591926     1.0468182315
H       -4.2391015068     2.0705263503     -0.4487763429
H       -2.8479148532     -0.3077794828     0.3433696273
$end
--------------------------------------------------------------

             Standard Nuclear Orientation (Angstroms)
    I     Atom           X                Y                Z
 ----------------------------------------------------------------
    1      C      -5.3488593012     0.2878400013     0.0301030311
    2      C      -4.1029441209     1.1374160001     0.1059410578
    3      H      -5.4830457159    -0.0476472240    -0.9970277615
    4      H      -6.2605800829     0.8380480057     0.2700626860
    5      H      -5.2858367765    -0.5016377200     0.7803406701
    6      O      -2.9529927871     0.4274948769    -0.2605211993
    7      H      -4.0815348556     1.7129591926     1.0468182315
    8      H      -4.2391015068     2.0705263503    -0.4487763429
    9      H      -2.8479148532    -0.3077794828     0.3433696273
 ----------------------------------------------------------------

    7    -154.9701588354      8.74E-06 Convergence criterion met
    6    -155.0388252305      6.28E-06 Convergence criterion met
 Total energy in the final basis set = -155.03882523

                    Orbital Energies (a.u.)
 --------------------------------------------------------------

 Alpha MOs
 -- Occupied --
-19.2534 -10.3264 -10.2734  -1.1341  -0.8519  -0.7260  -0.6033  -0.5498
 -0.5267  -0.4699  -0.4547  -0.4022  -0.3644

                    Cartesian Multipole Moments
 -----------------------------------------------------------------
    Charge (ESU x 10^10)
                 0.0000
    Dipole Moment (Debye)
         X      -1.1303      Y      -0.3092      Z       1.2593
       Tot       1.7202
    Quadrupole Moments (Debye-Ang)
        XX     -12.3101     XY      -1.1090     YY     -18.5815
        XZ      -3.3811     YZ      -0.2678     ZZ     -20.2689

 Total job time:  11.12s(wall), 57.30s(cpu)
        *  Thank you very much for using Q-Chem.  Have a nice day.  *
