 Q-Chem 5.3 (devel), Q-Chem, Inc., Pleasanton, CA (2020)
 Q-Chem 5.3.0 for Intel X86 EM64T Linux

User input:
--------------------------------------------------------------
$rem
   JOBTYPE  sp
   EXCHANGE   omegaB97X-D
   BASIS   6-311+G(2df,2pd)
   UNRESTRICTED   False
   max_scf_cycles   250
   geom_opt_max_cycles   1500
   basis2 6-31G*
   scf_algorithm rca_diis
   SYM_IGNORE  TRUE
   print_input   true
   geom_opt_dmax   80
   pop_mulliken false
   XC_GRID 000075000302
$end

$molecule
0 1
C       -5.3588759209     0.3251855598     0.0476628884
C       -4.1019571107     1.1730319796     0.1246652987
H       -5.4876847114     -0.0858983289     -0.9540101466
H       -6.2624254410     0.8765972561     0.3116765282
H       -5.3123712984     -0.5387920670     0.7174664772
O       -2.9370138267     0.4930335761     -0.2755607738
H       -4.1011565697     1.6082641278     1.1326174733
H       -4.1684829712     1.9998463544     -0.5800633823
H       -2.8728421501     -0.2340484578     0.3458556371
$end
--------------------------------------------------------------

             Standard Nuclear Orientation (Angstroms)
    I     Atom           X                Y                Z
 ----------------------------------------------------------------
    1      C      -5.3588759209     0.3251855598     0.0476628884
    2      C      -4.1019571107     1.1730319796     0.1246652987
    3      H      -5.4876847114    -0.0858983289    -0.9540101466
    4      H      -6.2624254410     0.8765972561     0.3116765282
    5      H      -5.3123712984    -0.5387920670     0.7174664772
    6      O      -2.9370138267     0.4930335761    -0.2755607738
    7      H      -4.1011565697     1.6082641278     1.1326174733
    8      H      -4.1684829712     1.9998463544    -0.5800633823
    9      H      -2.8728421501    -0.2340484578     0.3458556371
 ----------------------------------------------------------------

    7    -154.9802270865      7.53E-06 Convergence criterion met
    6    -155.0479199586      5.43E-06 Convergence criterion met
 Total energy in the final basis set = -155.04791996

                    Orbital Energies (a.u.)
 --------------------------------------------------------------

 Alpha MOs
 -- Occupied --
-19.2524 -10.3271 -10.2738  -1.1342  -0.8497  -0.7218  -0.6022  -0.5420
 -0.5250  -0.4675  -0.4593  -0.4178  -0.3649

                    Cartesian Multipole Moments
 -----------------------------------------------------------------
    Charge (ESU x 10^10)
                 0.0000
    Dipole Moment (Debye)
         X      -1.1992      Y      -0.4268      Z       1.2743
       Tot       1.8011
    Quadrupole Moments (Debye-Ang)
        XX     -11.9809     XY      -0.4781     YY     -19.0996
        XZ      -3.5662     YZ      -0.2472     ZZ     -20.0062

 Total job time:  11.24s(wall), 57.83s(cpu)
        *  Thank you very much for using Q-Chem.  Have a nice day.  *
