 Q-Chem 5.3 (devel), Q-Chem, Inc., Pleasanton, CA (2020)
 Q-Chem 5.3.0 for Intel X86 EM64T Linux

User input:
--------------------------------------------------------------
$rem
   JOBTYPE  sp
   EXCHANGE   omegaB97X-D
   BASIS   6-311+G(2df,2pd)
   UNRESTRICTED   False
   max_scf_cycles   250
   geom_opt_max_cycles   1500
   basis2 6-31G*
   scf_algorithm rca_diis
   SYM_IGNORE  TRUE
   print_input   true
   geom_opt_dmax   80
   pop_mulliken false
   XC_GRID 000075000302
$end

$molecule
0 1
C       -5.4022047335     0.2898380619     0.0271851798
C       -4.1189689667     1.1230444022     0.1028814353
H       -5.6055541632     -0.0988980544     -0.9706152223
H       -6.2140091575     0.9693277852     0.2971140860
H       -5.4206416923     -0.5386223240     0.7376056228
O       -2.8530952312     0.5634809100     -0.2138746384
H       -4.0911013638     1.5327355956     1.1194839700
H       -4.2141277073     1.9694846915     -0.5768914846
H       -2.6831069843     -0.1931710681     0.3474210516
$end
--------------------------------------------------------------

             Standard Nuclear Orientation (Angstroms)
    I     Atom           X                Y                Z
 ----------------------------------------------------------------
    1      C      -5.4022047335     0.2898380619     0.0271851798
    2      C      -4.1189689667     1.1230444022     0.1028814353
    3      H      -5.6055541632    -0.0988980544    -0.9706152223
    4      H      -6.2140091575     0.9693277852     0.2971140860
    5      H      -5.4206416923    -0.5386223240     0.7376056228
    6      O      -2.8530952312     0.5634809100    -0.2138746384
    7      H      -4.0911013638     1.5327355956     1.1194839700
    8      H      -4.2141277073     1.9694846915    -0.5768914846
    9      H      -2.6831069843    -0.1931710681     0.3474210516
 ----------------------------------------------------------------

    7    -154.9791610077      7.31E-06 Convergence criterion met
    6    -155.0474467057      5.59E-06 Convergence criterion met
 Total energy in the final basis set = -155.04744671

                    Orbital Energies (a.u.)
 --------------------------------------------------------------

 Alpha MOs
 -- Occupied --
-19.2485 -10.3287 -10.2775  -1.1239  -0.8515  -0.7227  -0.5948  -0.5440
 -0.5199  -0.4715  -0.4585  -0.4128  -0.3616

                    Cartesian Multipole Moments
 -----------------------------------------------------------------
    Charge (ESU x 10^10)
                 0.0000
    Dipole Moment (Debye)
         X      -1.2168      Y      -0.5838      Z       1.1781
       Tot       1.7914
    Quadrupole Moments (Debye-Ang)
        XX     -11.5747     XY      -0.3195     YY     -19.3564
        XZ      -2.9913     YZ      -0.2925     ZZ     -19.9697

 Total job time:  11.06s(wall), 57.30s(cpu)
        *  Thank you very much for using Q-Chem.  Have a nice day.  *
