 Q-Chem 5.3 (devel), Q-Chem, Inc., Pleasanton, CA (2020)
 Q-Chem 5.3.0 for Intel X86 EM64T Linux

User input:
--------------------------------------------------------------
$rem
   JOBTYPE  sp
   EXCHANGE   omegaB97X-D
   BASIS   6-311+G(2df,2pd)
   UNRESTRICTED   False
   max_scf_cycles   250
   geom_opt_max_cycles   1500
   basis2 6-31G*
   scf_algorithm rca_diis
   SYM_IGNORE  TRUE
   print_input   true
   geom_opt_dmax   80
   pop_mulliken false
   XC_GRID 000075000302
$end

$molecule
0 1
C       -5.4339968998     0.2511983864     -0.0047160488
C       -4.2488227479     1.1863946390     0.1291808712
H       -5.5105689438     -0.0821827710     -1.0373154718
H       -6.2521381490     0.9422190838     0.2065261733
H       -5.3310448003     -0.4926164632     0.7779513988
O       -3.0100953067     0.4730685414     -0.0990452530
H       -3.7944378173     1.5516692876     1.0488081147
H       -4.3731294199     2.0596616840     -0.5195698363
H       -2.6485759151     -0.2721923880     0.3684900521
$end
--------------------------------------------------------------

             Standard Nuclear Orientation (Angstroms)
    I     Atom           X                Y                Z
 ----------------------------------------------------------------
    1      C      -5.4339968998     0.2511983864    -0.0047160488
    2      C      -4.2488227479     1.1863946390     0.1291808712
    3      H      -5.5105689438    -0.0821827710    -1.0373154718
    4      H      -6.2521381490     0.9422190838     0.2065261733
    5      H      -5.3310448003    -0.4926164632     0.7779513988
    6      O      -3.0100953067     0.4730685414    -0.0990452530
    7      H      -3.7944378173     1.5516692876     1.0488081147
    8      H      -4.3731294199     2.0596616840    -0.5195698363
    9      H      -2.6485759151    -0.2721923880     0.3684900521
 ----------------------------------------------------------------

    6    -154.9345809028      6.70E-05 Convergence criterion met
    6    -155.0074254317      7.98E-06 Convergence criterion met
 Total energy in the final basis set = -155.00742543

                    Orbital Energies (a.u.)
 --------------------------------------------------------------

 Alpha MOs
 -- Occupied --
-19.2228 -10.3311 -10.2778  -1.1024  -0.8553  -0.7302  -0.5787  -0.5630
 -0.5107  -0.4808  -0.4633  -0.3722  -0.3429

                    Cartesian Multipole Moments
 -----------------------------------------------------------------
    Charge (ESU x 10^10)
                -0.0000
    Dipole Moment (Debye)
         X      -1.0023      Y      -0.3725      Z       1.0209
       Tot       1.4784
    Quadrupole Moments (Debye-Ang)
        XX     -12.7878     XY      -1.1956     YY     -18.7412
        XZ      -1.8357     YZ      -0.5571     ZZ     -19.8642

 Total job time:  10.78s(wall), 55.33s(cpu)
        *  Thank you very much for using Q-Chem.  Have a nice day.  *
