 Q-Chem 5.3 (devel), Q-Chem, Inc., Pleasanton, CA (2020)
 Q-Chem 5.3.0 for Intel X86 EM64T Linux

User input:
--------------------------------------------------------------
$rem
   JOBTYPE  sp
   EXCHANGE   omegaB97X-D
   BASIS   6-311+G(2df,2pd)
   UNRESTRICTED   False
   max_scf_cycles   250
   geom_opt_max_cycles   1500
   basis2 6-31G*
   scf_algorithm rca_diis
   SYM_IGNORE  TRUE
   print_input   true
   geom_opt_dmax   80
   pop_mulliken false
   XC_GRID 000075000302
$end

$molecule
0 1
C       -5.3902863636     0.2950030719     0.0411358187
C       -4.1427804821     1.1747756676     0.1247661636
H       -5.4905674499     -0.0635178202     -0.8712920098
H       -6.1824182706     0.8139384767     0.2657026981
H       -5.3299137972     -0.4330230569     0.6480205224
O       -2.9618864369     0.4869488290     -0.2432066698
H       -4.0465944904     1.5923772134     1.1195421327
H       -4.2211229304     2.0032896541     -0.5644604200
H       -2.8372397788     -0.2525720357     0.3501017642
$end
--------------------------------------------------------------

             Standard Nuclear Orientation (Angstroms)
    I     Atom           X                Y                Z
 ----------------------------------------------------------------
    1      C      -5.3902863636     0.2950030719     0.0411358187
    2      C      -4.1427804821     1.1747756676     0.1247661636
    3      H      -5.4905674499    -0.0635178202    -0.8712920098
    4      H      -6.1824182706     0.8139384767     0.2657026981
    5      H      -5.3299137972    -0.4330230569     0.6480205224
    6      O      -2.9618864369     0.4869488290    -0.2432066698
    7      H      -4.0465944904     1.5923772134     1.1195421327
    8      H      -4.2211229304     2.0032896541    -0.5644604200
    9      H      -2.8372397788    -0.2525720357     0.3501017642
 ----------------------------------------------------------------

    7    -154.9437757932      7.67E-06 Convergence criterion met
    6    -155.0156110057      5.57E-06 Convergence criterion met
 Total energy in the final basis set = -155.01561101

                    Orbital Energies (a.u.)
 --------------------------------------------------------------

 Alpha MOs
 -- Occupied --
-19.2444 -10.3226 -10.2321  -1.1245  -0.8662  -0.7376  -0.5983  -0.5550
 -0.5311  -0.4811  -0.4735  -0.4134  -0.3604

                    Cartesian Multipole Moments
 -----------------------------------------------------------------
    Charge (ESU x 10^10)
                -0.0000
    Dipole Moment (Debye)
         X      -1.2596      Y      -0.4796      Z       1.2738
       Tot       1.8545
    Quadrupole Moments (Debye-Ang)
        XX     -10.9282     XY      -0.3174     YY     -18.6874
        XZ      -3.4294     YZ      -0.2954     ZZ     -19.6483

 Total job time:  11.14s(wall), 57.37s(cpu)
        *  Thank you very much for using Q-Chem.  Have a nice day.  *
