 Q-Chem 5.3 (devel), Q-Chem, Inc., Pleasanton, CA (2020)
 Q-Chem 5.3.0 for Intel X86 EM64T Linux

User input:
--------------------------------------------------------------
$rem
   JOBTYPE  sp
   EXCHANGE   omegaB97X-D
   BASIS   6-311+G(2df,2pd)
   UNRESTRICTED   False
   max_scf_cycles   250
   geom_opt_max_cycles   1500
   basis2 6-31G*
   scf_algorithm rca_diis
   SYM_IGNORE  TRUE
   print_input   true
   geom_opt_dmax   80
   pop_mulliken false
   XC_GRID 000075000302
$end

$molecule
0 1
C       -5.4696258187     0.2391614177     0.0039193818
C       -4.0785439960     0.9601768144     0.0518525382
H       -5.8767284647     -0.0790842976     -0.9561578819
H       -6.0306012869     1.1290813905     0.3119519819
H       -5.6733431888     -0.5328671296     0.7452885999
O       -2.6754136770     0.7446324722     -0.1330177642
H       -4.2087307434     1.3388849499     1.0733399719
H       -4.2319477436     1.8308377093     -0.5854994067
H       -2.3578750807     -0.0136033267     0.3586325792
$end
--------------------------------------------------------------

             Standard Nuclear Orientation (Angstroms)
    I     Atom           X                Y                Z
 ----------------------------------------------------------------
    1      C      -5.4696258187     0.2391614177     0.0039193818
    2      C      -4.0785439960     0.9601768144     0.0518525382
    3      H      -5.8767284647    -0.0790842976    -0.9561578819
    4      H      -6.0306012869     1.1290813905     0.3119519819
    5      H      -5.6733431888    -0.5328671296     0.7452885999
    6      O      -2.6754136770     0.7446324722    -0.1330177642
    7      H      -4.2087307434     1.3388849499     1.0733399719
    8      H      -4.2319477436     1.8308377093    -0.5854994067
    9      H      -2.3578750807    -0.0136033267     0.3586325792
 ----------------------------------------------------------------

    7    -154.9448881690      8.99E-06 Convergence criterion met
    6    -155.0132996259      5.75E-06 Convergence criterion met
 Total energy in the final basis set = -155.01329963

                    Orbital Energies (a.u.)
 --------------------------------------------------------------

 Alpha MOs
 -- Occupied --
-19.2538 -10.3329 -10.2874  -1.1213  -0.8577  -0.7232  -0.5955  -0.5433
 -0.5108  -0.4715  -0.4529  -0.4128  -0.3558

                    Cartesian Multipole Moments
 -----------------------------------------------------------------
    Charge (ESU x 10^10)
                 0.0000
    Dipole Moment (Debye)
         X      -1.1577      Y      -0.9112      Z       1.0211
       Tot       1.7925
    Quadrupole Moments (Debye-Ang)
        XX     -11.1871     XY       0.4522     YY     -20.4779
        XZ      -2.3884     YZ      -0.2530     ZZ     -20.1082

 Total job time:  11.00s(wall), 56.94s(cpu)
        *  Thank you very much for using Q-Chem.  Have a nice day.  *
