 Q-Chem 5.3 (devel), Q-Chem, Inc., Pleasanton, CA (2020)
 Q-Chem 5.3.0 for Intel X86 EM64T Linux

User input:
--------------------------------------------------------------
$rem
   JOBTYPE  sp
   EXCHANGE   omegaB97X-D
   BASIS   6-311+G(2df,2pd)
   UNRESTRICTED   False
   max_scf_cycles   250
   geom_opt_max_cycles   1500
   basis2 6-31G*
   scf_algorithm rca_diis
   SYM_IGNORE  TRUE
   print_input   true
   geom_opt_dmax   80
   pop_mulliken false
   XC_GRID 000075000302
$end

$molecule
0 1
C       -5.4069447186     0.3003716223     0.0111777304
C       -4.0926701153     1.1823383097     0.1510382548
H       -5.5594434385     -0.1277036059     -0.9799745701
H       -6.2984125472     0.8599086085     0.2996956159
H       -5.3271503542     -0.5297258663     0.7202929156
O       -3.0023088585     0.5257415868     -0.2107651903
H       -4.0400295078     1.6493987663     1.1452983516
H       -4.1049209652     1.9973381889     -0.5755820135
H       -2.7709294946     -0.2404476103     0.3091289059
$end
--------------------------------------------------------------

             Standard Nuclear Orientation (Angstroms)
    I     Atom           X                Y                Z
 ----------------------------------------------------------------
    1      C      -5.4069447186     0.3003716223     0.0111777304
    2      C      -4.0926701153     1.1823383097     0.1510382548
    3      H      -5.5594434385    -0.1277036059    -0.9799745701
    4      H      -6.2984125472     0.8599086085     0.2996956159
    5      H      -5.3271503542    -0.5297258663     0.7202929156
    6      O      -3.0023088585     0.5257415868    -0.2107651903
    7      H      -4.0400295078     1.6493987663     1.1452983516
    8      H      -4.1049209652     1.9973381889    -0.5755820135
    9      H      -2.7709294946    -0.2404476103     0.3091289059
 ----------------------------------------------------------------

    6    -154.9718716999      6.10E-05 Convergence criterion met
    6    -155.0403402876      5.39E-06 Convergence criterion met
 Total energy in the final basis set = -155.04034029

                    Orbital Energies (a.u.)
 --------------------------------------------------------------

 Alpha MOs
 -- Occupied --
-19.2472 -10.3263 -10.2723  -1.1556  -0.8322  -0.7374  -0.6078  -0.5463
 -0.5226  -0.4722  -0.4604  -0.3958  -0.3571

                    Cartesian Multipole Moments
 -----------------------------------------------------------------
    Charge (ESU x 10^10)
                -0.0000
    Dipole Moment (Debye)
         X      -0.6127      Y      -0.6085      Z       1.1160
       Tot       1.4111
    Quadrupole Moments (Debye-Ang)
        XX     -16.0933     XY       0.4027     YY     -19.3206
        XZ      -2.8623     YZ      -0.1023     ZZ     -20.0247

 Total job time:  10.77s(wall), 55.37s(cpu)
        *  Thank you very much for using Q-Chem.  Have a nice day.  *
