 Q-Chem 5.3 (devel), Q-Chem, Inc., Pleasanton, CA (2020)
 Q-Chem 5.3.0 for Intel X86 EM64T Linux

User input:
--------------------------------------------------------------
$rem
   JOBTYPE  sp
   EXCHANGE   omegaB97X-D
   BASIS   6-311+G(2df,2pd)
   UNRESTRICTED   False
   max_scf_cycles   250
   geom_opt_max_cycles   1500
   basis2 6-31G*
   scf_algorithm rca_diis
   SYM_IGNORE  TRUE
   print_input   true
   geom_opt_dmax   80
   pop_mulliken false
   XC_GRID 000075000302
$end

$molecule
0 1
C       -5.3983031121     0.2873875383     0.0437388632
C       -4.1475192999     1.1723878316     0.1258560514
H       -5.4907762887     -0.0507392321     -0.8211734873
H       -6.1410447424     0.7770007340     0.2549474082
H       -5.3390381128     -0.3851819379     0.6057044688
O       -2.9662957593     0.4853477145     -0.2428493818
H       -4.0521354896     1.5876943870     1.1146274806
H       -4.2270525767     1.9968655259     -0.5608887268
H       -2.8406446185     -0.2535425613     0.3503473237
$end
--------------------------------------------------------------

             Standard Nuclear Orientation (Angstroms)
    I     Atom           X                Y                Z
 ----------------------------------------------------------------
    1      C      -5.3983031121     0.2873875383     0.0437388632
    2      C      -4.1475192999     1.1723878316     0.1258560514
    3      H      -5.4907762887    -0.0507392321    -0.8211734873
    4      H      -6.1410447424     0.7770007340     0.2549474082
    5      H      -5.3390381128    -0.3851819379     0.6057044688
    6      O      -2.9662957593     0.4853477145    -0.2428493818
    7      H      -4.0521354896     1.5876943870     1.1146274806
    8      H      -4.2270525767     1.9968655259    -0.5608887268
    9      H      -2.8406446185    -0.2535425613     0.3503473237
 ----------------------------------------------------------------

    7    -154.8851399456      1.06E-05 Convergence criterion met
    6    -154.9602706092      5.67E-06 Convergence criterion met
 Total energy in the final basis set = -154.96027061

                    Orbital Energies (a.u.)
 --------------------------------------------------------------

 Alpha MOs
 -- Occupied --
-19.2437 -10.3207 -10.2105  -1.1239  -0.8779  -0.7441  -0.5997  -0.5624
 -0.5364  -0.4863  -0.4802  -0.4139  -0.3595

                    Cartesian Multipole Moments
 -----------------------------------------------------------------
    Charge (ESU x 10^10)
                -0.0000
    Dipole Moment (Debye)
         X      -1.2916      Y      -0.5024      Z       1.2848
       Tot       1.8897
    Quadrupole Moments (Debye-Ang)
        XX     -10.4244     XY      -0.1924     YY     -18.5326
        XZ      -3.4891     YZ      -0.2893     ZZ     -19.4929

 Total job time:  11.24s(wall), 57.95s(cpu)
        *  Thank you very much for using Q-Chem.  Have a nice day.  *
