 Q-Chem 5.3 (devel), Q-Chem, Inc., Pleasanton, CA (2020)
 Q-Chem 5.3.0 for Intel X86 EM64T Linux

User input:
--------------------------------------------------------------
$rem
   JOBTYPE  sp
   EXCHANGE   omegaB97X-D
   BASIS   6-311+G(2df,2pd)
   UNRESTRICTED   False
   max_scf_cycles   250
   geom_opt_max_cycles   1500
   basis2 6-31G*
   scf_algorithm rca_diis
   SYM_IGNORE  TRUE
   print_input   true
   geom_opt_dmax   80
   pop_mulliken false
   XC_GRID 000075000302
$end

$molecule
0 1
C       -5.4822256499     0.2296852560     -0.0007331328
C       -4.0699083771     0.9248406233     0.0418880610
H       -5.9259020467     -0.0680171055     -0.9512191162
H       -5.9861910815     1.1521031490     0.3127800397
H       -5.7198427024     -0.5263067465     0.7464796729
O       -2.6523166046     0.7790073157     -0.1172228868
H       -4.2282010599     1.2982677701     1.0615158954
H       -4.2360422012     1.8000699451     -0.5859753007
H       -2.3021802766     0.0275697928     0.3627967676
$end
--------------------------------------------------------------

             Standard Nuclear Orientation (Angstroms)
    I     Atom           X                Y                Z
 ----------------------------------------------------------------
    1      C      -5.4822256499     0.2296852560    -0.0007331328
    2      C      -4.0699083771     0.9248406233     0.0418880610
    3      H      -5.9259020467    -0.0680171055    -0.9512191162
    4      H      -5.9861910815     1.1521031490     0.3127800397
    5      H      -5.7198427024    -0.5263067465     0.7464796729
    6      O      -2.6523166046     0.7790073157    -0.1172228868
    7      H      -4.2282010599     1.2982677701     1.0615158954
    8      H      -4.2360422012     1.8000699451    -0.5859753007
    9      H      -2.3021802766     0.0275697928     0.3627967676
 ----------------------------------------------------------------

    7    -154.9340724836      1.00E-05 Convergence criterion met
    6    -155.0025937143      5.89E-06 Convergence criterion met
 Total energy in the final basis set = -155.00259371

                    Orbital Energies (a.u.)
 --------------------------------------------------------------

 Alpha MOs
 -- Occupied --
-19.2547 -10.3338 -10.2896  -1.1209  -0.8595  -0.7234  -0.5961  -0.5432
 -0.5095  -0.4712  -0.4507  -0.4120  -0.3542

                    Cartesian Multipole Moments
 -----------------------------------------------------------------
    Charge (ESU x 10^10)
                 0.0000
    Dipole Moment (Debye)
         X      -1.1295      Y      -0.9518      Z       0.9962
       Tot       1.7817
    Quadrupole Moments (Debye-Ang)
        XX     -11.1631     XY       0.5699     YY     -20.7014
        XZ      -2.3013     YZ      -0.2385     ZZ     -20.1455

 Total job time:  10.80s(wall), 55.67s(cpu)
        *  Thank you very much for using Q-Chem.  Have a nice day.  *
