 Q-Chem 5.3 (devel), Q-Chem, Inc., Pleasanton, CA (2020)
 Q-Chem 5.3.0 for Intel X86 EM64T Linux

User input:
--------------------------------------------------------------
$rem
   JOBTYPE  sp
   EXCHANGE   omegaB97X-D
   BASIS   6-311+G(2df,2pd)
   UNRESTRICTED   False
   max_scf_cycles   250
   geom_opt_max_cycles   1500
   basis2 6-31G*
   scf_algorithm rca_diis
   SYM_IGNORE  TRUE
   print_input   true
   geom_opt_dmax   80
   pop_mulliken false
   XC_GRID 000075000302
$end

$molecule
0 1
C       -5.3493506486     0.3219179528     -0.1195904917
C       -4.1418681019     1.2391891536     0.0033507737
H       -5.6513226177     -0.3914539449     -0.8799275139
H       -6.2194139116     0.8508197796     0.2729916757
H       -5.0117781033     -0.1901519748     0.7909591688
O       -2.9342301725     0.5214903892     -0.1882423865
H       -4.2110361478     1.3214984970     1.0989212008
H       -4.0390983096     2.2381977556     -0.4089660593
H       -3.0447119869     -0.2942876082     0.3008136326
$end
--------------------------------------------------------------

             Standard Nuclear Orientation (Angstroms)
    I     Atom           X                Y                Z
 ----------------------------------------------------------------
    1      C      -5.3493506486     0.3219179528    -0.1195904917
    2      C      -4.1418681019     1.2391891536     0.0033507737
    3      H      -5.6513226177    -0.3914539449    -0.8799275139
    4      H      -6.2194139116     0.8508197796     0.2729916757
    5      H      -5.0117781033    -0.1901519748     0.7909591688
    6      O      -2.9342301725     0.5214903892    -0.1882423865
    7      H      -4.2110361478     1.3214984970     1.0989212008
    8      H      -4.0390983096     2.2381977556    -0.4089660593
    9      H      -3.0447119869    -0.2942876082     0.3008136326
 ----------------------------------------------------------------

    6    -154.9411309913      9.67E-05 Convergence criterion met
    6    -155.0112294244      6.47E-06 Convergence criterion met
 Total energy in the final basis set = -155.01122942

                    Orbital Energies (a.u.)
 --------------------------------------------------------------

 Alpha MOs
 -- Occupied --
-19.2455 -10.3344 -10.2826  -1.1301  -0.8624  -0.7244  -0.6048  -0.5504
 -0.5179  -0.4891  -0.4466  -0.4109  -0.3548

                    Cartesian Multipole Moments
 -----------------------------------------------------------------
    Charge (ESU x 10^10)
                 0.0000
    Dipole Moment (Debye)
         X      -1.5756      Y      -0.4773      Z       1.0650
       Tot       1.9608
    Quadrupole Moments (Debye-Ang)
        XX      -9.6934     XY      -0.0337     YY     -18.6156
        XZ      -3.0743     YZ      -0.1207     ZZ     -20.2611

 Total job time:  11.06s(wall), 56.82s(cpu)
        *  Thank you very much for using Q-Chem.  Have a nice day.  *
