 Q-Chem 5.3 (devel), Q-Chem, Inc., Pleasanton, CA (2020)
 Q-Chem 5.3.0 for Intel X86 EM64T Linux

User input:
--------------------------------------------------------------
$rem
   JOBTYPE  sp
   EXCHANGE   omegaB97X-D
   BASIS   6-311+G(2df,2pd)
   UNRESTRICTED   False
   max_scf_cycles   250
   geom_opt_max_cycles   1500
   basis2 6-31G*
   scf_algorithm rca_diis
   SYM_IGNORE  TRUE
   print_input   true
   geom_opt_dmax   80
   pop_mulliken false
   XC_GRID 000075000302
$end

$molecule
0 1
C       -5.3700566287     0.2461479425     0.2074748301
C       -4.1439260164     1.1295455306     0.2830142895
H       -5.2042097075     0.2986755217     -0.8737751679
H       -6.2284453289     0.9157401901     0.2761000109
H       -5.6574990856     -0.7519103768     0.5233556512
O       -3.0401527422     0.4463956673     -0.2723132497
H       -3.8824265844     1.8748440578     1.0347724449
H       -4.4429295060     1.6260592878     -0.6456301292
H       -2.6331644002     -0.1682778212     0.3373113203
$end
--------------------------------------------------------------

             Standard Nuclear Orientation (Angstroms)
    I     Atom           X                Y                Z
 ----------------------------------------------------------------
    1      C      -5.3700566287     0.2461479425     0.2074748301
    2      C      -4.1439260164     1.1295455306     0.2830142895
    3      H      -5.2042097075     0.2986755217    -0.8737751679
    4      H      -6.2284453289     0.9157401901     0.2761000109
    5      H      -5.6574990856    -0.7519103768     0.5233556512
    6      O      -3.0401527422     0.4463956673    -0.2723132497
    7      H      -3.8824265844     1.8748440578     1.0347724449
    8      H      -4.4429295060     1.6260592878    -0.6456301292
    9      H      -2.6331644002    -0.1682778212     0.3373113203
 ----------------------------------------------------------------

    6    -154.9197013124      9.48E-05 Convergence criterion met
    6    -154.9905619751      6.22E-06 Convergence criterion met
 Total energy in the final basis set = -154.99056198

                    Orbital Energies (a.u.)
 --------------------------------------------------------------

 Alpha MOs
 -- Occupied --
-19.2454 -10.3326 -10.2724  -1.1283  -0.8691  -0.7184  -0.6032  -0.5619
 -0.5265  -0.4572  -0.4396  -0.3862  -0.3678

                    Cartesian Multipole Moments
 -----------------------------------------------------------------
    Charge (ESU x 10^10)
                -0.0000
    Dipole Moment (Debye)
         X      -0.5885      Y      -0.1981      Z       1.2363
       Tot       1.3835
    Quadrupole Moments (Debye-Ang)
        XX     -15.4494     XY      -1.0137     YY     -19.0235
        XZ      -2.7999     YZ      -0.1263     ZZ     -20.4194

 Total job time:  11.02s(wall), 56.40s(cpu)
        *  Thank you very much for using Q-Chem.  Have a nice day.  *
