 Q-Chem 5.3 (devel), Q-Chem, Inc., Pleasanton, CA (2020)
 Q-Chem 5.3.0 for Intel X86 EM64T Linux

User input:
--------------------------------------------------------------
$rem
   JOBTYPE  sp
   EXCHANGE   omegaB97X-D
   BASIS   6-311+G(2df,2pd)
   UNRESTRICTED   False
   max_scf_cycles   250
   geom_opt_max_cycles   1500
   basis2 6-31G*
   scf_algorithm rca_diis
   SYM_IGNORE  TRUE
   print_input   true
   geom_opt_dmax   80
   pop_mulliken false
   XC_GRID 000075000302
$end

$molecule
0 1
C       -5.3620019351     0.2988653586     0.0329792770
C       -4.1177491555     1.1572048056     0.1139347752
H       -5.4878662427     -0.0689564691     -0.9846361423
H       -6.2630909888     0.8634049602     0.2785771415
H       -5.3005635590     -0.5159724239     0.7567570048
O       -2.9515961336     0.4589392439     -0.2522158324
H       -4.0582828527     1.6578638817     1.0911670728
H       -4.2244940122     2.0450546049     -0.5126124147
H       -2.8371651205     -0.2791839620     0.3463591182
$end
--------------------------------------------------------------

             Standard Nuclear Orientation (Angstroms)
    I     Atom           X                Y                Z
 ----------------------------------------------------------------
    1      C      -5.3620019351     0.2988653586     0.0329792770
    2      C      -4.1177491555     1.1572048056     0.1139347752
    3      H      -5.4878662427    -0.0689564691    -0.9846361423
    4      H      -6.2630909888     0.8634049602     0.2785771415
    5      H      -5.3005635590    -0.5159724239     0.7567570048
    6      O      -2.9515961336     0.4589392439    -0.2522158324
    7      H      -4.0582828527     1.6578638817     1.0911670728
    8      H      -4.2244940122     2.0450546049    -0.5126124147
    9      H      -2.8371651205    -0.2791839620     0.3463591182
 ----------------------------------------------------------------

    7    -154.9796828661      7.88E-06 Convergence criterion met
    6    -155.0479569729      5.91E-06 Convergence criterion met
 Total energy in the final basis set = -155.04795697

                    Orbital Energies (a.u.)
 --------------------------------------------------------------

 Alpha MOs
 -- Occupied --
-19.2498 -10.3268 -10.2739  -1.1299  -0.8507  -0.7240  -0.5984  -0.5471
 -0.5254  -0.4691  -0.4579  -0.4079  -0.3644

                    Cartesian Multipole Moments
 -----------------------------------------------------------------
    Charge (ESU x 10^10)
                 0.0000
    Dipole Moment (Debye)
         X      -1.1563      Y      -0.3662      Z       1.2512
       Tot       1.7426
    Quadrupole Moments (Debye-Ang)
        XX     -12.1582     XY      -0.8609     YY     -18.7704
        XZ      -3.3171     YZ      -0.2885     ZZ     -20.0881

 Total job time:  11.11s(wall), 57.24s(cpu)
        *  Thank you very much for using Q-Chem.  Have a nice day.  *
