 Q-Chem 5.3 (devel), Q-Chem, Inc., Pleasanton, CA (2020)
 Q-Chem 5.3.0 for Intel X86 EM64T Linux

User input:
--------------------------------------------------------------
$rem
   JOBTYPE  sp
   EXCHANGE   omegaB97X-D
   BASIS   6-311+G(2df,2pd)
   UNRESTRICTED   False
   max_scf_cycles   250
   geom_opt_max_cycles   1500
   basis2 6-31G*
   scf_algorithm rca_diis
   SYM_IGNORE  TRUE
   print_input   true
   geom_opt_dmax   80
   pop_mulliken false
   XC_GRID 000075000302
$end

$molecule
0 1
C       -5.3344971316     0.2773433029     0.0273445407
C       -4.0885678598     1.1204450174     0.0985821679
H       -5.4763630868     -0.0254054761     -1.0083448765
H       -6.2577429421     0.8110371707     0.2616348315
H       -5.2689119173     -0.4859207485     0.8030666956
O       -2.9569946956     0.3962475619     -0.2688116641
H       -4.1047662077     1.7667684370     0.9967838373
H       -4.2526272505     2.0926100067     -0.3806320216
H       -2.8623389085     -0.3359052720     0.3406864893
$end
--------------------------------------------------------------

             Standard Nuclear Orientation (Angstroms)
    I     Atom           X                Y                Z
 ----------------------------------------------------------------
    1      C      -5.3344971316     0.2773433029     0.0273445407
    2      C      -4.0885678598     1.1204450174     0.0985821679
    3      H      -5.4763630868    -0.0254054761    -1.0083448765
    4      H      -6.2577429421     0.8110371707     0.2616348315
    5      H      -5.2689119173    -0.4859207485     0.8030666956
    6      O      -2.9569946956     0.3962475619    -0.2688116641
    7      H      -4.1047662077     1.7667684370     0.9967838373
    8      H      -4.2526272505     2.0926100067    -0.3806320216
    9      H      -2.8623389085    -0.3359052720     0.3406864893
 ----------------------------------------------------------------

    7    -154.9537157544      1.02E-05 Convergence criterion met
    6    -155.0231979280      6.75E-06 Convergence criterion met
 Total energy in the final basis set = -155.02319793

                    Orbital Energies (a.u.)
 --------------------------------------------------------------

 Alpha MOs
 -- Occupied --
-19.2569 -10.3262 -10.2727  -1.1384  -0.8536  -0.7291  -0.6106  -0.5529
 -0.5279  -0.4714  -0.4498  -0.3965  -0.3610

                    Cartesian Multipole Moments
 -----------------------------------------------------------------
    Charge (ESU x 10^10)
                 0.0000
    Dipole Moment (Debye)
         X      -1.1004      Y      -0.2372      Z       1.2690
       Tot       1.6963
    Quadrupole Moments (Debye-Ang)
        XX     -12.5188     XY      -1.4141     YY     -18.3629
        XZ      -3.4579     YZ      -0.2369     ZZ     -20.4737

 Total job time:  11.13s(wall), 57.30s(cpu)
        *  Thank you very much for using Q-Chem.  Have a nice day.  *
