 Q-Chem 5.3 (devel), Q-Chem, Inc., Pleasanton, CA (2020)
 Q-Chem 5.3.0 for Intel X86 EM64T Linux

User input:
--------------------------------------------------------------
$rem
   JOBTYPE  sp
   EXCHANGE   omegaB97X-D
   BASIS   6-311+G(2df,2pd)
   UNRESTRICTED   False
   max_scf_cycles   250
   geom_opt_max_cycles   1500
   basis2 6-31G*
   scf_algorithm rca_diis
   SYM_IGNORE  TRUE
   print_input   true
   geom_opt_dmax   80
   pop_mulliken false
   XC_GRID 000075000302
$end

$molecule
0 1
C       -5.3626653372     0.3228218913     -0.0598736907
C       -4.1364994470     1.2143260230     0.0482616770
H       -5.5998271945     -0.2809724523     -0.9323529693
H       -6.2461311761     0.8672237028     0.2774773260
H       -5.1263147978     -0.3354811591     0.7834302728
O       -2.9351578704     0.5108796958     -0.2145545383
H       -4.1398275468     1.4353066722     1.1247471304
H       -4.1006436870     2.1635551828     -0.4807349641
H       -2.9557429431     -0.2804395565     0.3239097563
$end
--------------------------------------------------------------

             Standard Nuclear Orientation (Angstroms)
    I     Atom           X                Y                Z
 ----------------------------------------------------------------
    1      C      -5.3626653372     0.3228218913    -0.0598736907
    2      C      -4.1364994470     1.2143260230     0.0482616770
    3      H      -5.5998271945    -0.2809724523    -0.9323529693
    4      H      -6.2461311761     0.8672237028     0.2774773260
    5      H      -5.1263147978    -0.3354811591     0.7834302728
    6      O      -2.9351578704     0.5108796958    -0.2145545383
    7      H      -4.1398275468     1.4353066722     1.1247471304
    8      H      -4.1006436870     2.1635551828    -0.4807349641
    9      H      -2.9557429431    -0.2804395565     0.3239097563
 ----------------------------------------------------------------

    7    -154.9684690924      7.59E-06 Convergence criterion met
    6    -155.0372854340      5.98E-06 Convergence criterion met
 Total energy in the final basis set = -155.03728543

                    Orbital Energies (a.u.)
 --------------------------------------------------------------

 Alpha MOs
 -- Occupied --
-19.2460 -10.3304 -10.2788  -1.1278  -0.8543  -0.7240  -0.5990  -0.5484
 -0.5187  -0.4824  -0.4531  -0.4134  -0.3587

                    Cartesian Multipole Moments
 -----------------------------------------------------------------
    Charge (ESU x 10^10)
                 0.0000
    Dipole Moment (Debye)
         X      -1.4316      Y      -0.4686      Z       1.1438
       Tot       1.8914
    Quadrupole Moments (Debye-Ang)
        XX     -10.5563     XY      -0.2960     YY     -18.7805
        XZ      -3.1475     YZ      -0.2113     ZZ     -20.0672

 Total job time:  11.20s(wall), 57.76s(cpu)
        *  Thank you very much for using Q-Chem.  Have a nice day.  *
