 Q-Chem 5.3 (devel), Q-Chem, Inc., Pleasanton, CA (2020)
 Q-Chem 5.3.0 for Intel X86 EM64T Linux

User input:
--------------------------------------------------------------
$rem
   JOBTYPE  sp
   EXCHANGE   omegaB97X-D
   BASIS   6-311+G(2df,2pd)
   UNRESTRICTED   False
   max_scf_cycles   250
   geom_opt_max_cycles   1500
   basis2 6-31G*
   scf_algorithm rca_diis
   SYM_IGNORE  TRUE
   print_input   true
   geom_opt_dmax   80
   pop_mulliken false
   XC_GRID 000075000302
$end

$molecule
0 1
C       -5.3567696746     0.2769191641     0.0233635876
C       -4.1217768504     1.1725726874     0.1189402630
H       -5.5065219487     0.0564963634     -1.0298953660
H       -6.3030441669     0.7706820907     0.2717135002
H       -5.3344091474     -0.4283427453     0.8531845489
O       -2.9343844477     0.5055306043     -0.2429039023
H       -4.0355387163     1.5335025756     1.1470978067
H       -4.2048036080     1.9651916938     -0.6204349918
H       -2.8055614399     -0.2353324339     0.3492445538
$end
--------------------------------------------------------------

             Standard Nuclear Orientation (Angstroms)
    I     Atom           X                Y                Z
 ----------------------------------------------------------------
    1      C      -5.3567696746     0.2769191641     0.0233635876
    2      C      -4.1217768504     1.1725726874     0.1189402630
    3      H      -5.5065219487     0.0564963634    -1.0298953660
    4      H      -6.3030441669     0.7706820907     0.2717135002
    5      H      -5.3344091474    -0.4283427453     0.8531845489
    6      O      -2.9343844477     0.5055306043    -0.2429039023
    7      H      -4.0355387163     1.5335025756     1.1470978067
    8      H      -4.2048036080     1.9651916938    -0.6204349918
    9      H      -2.8055614399    -0.2353324339     0.3492445538
 ----------------------------------------------------------------

    7    -154.9693722379      8.04E-06 Convergence criterion met
    6    -155.0382750378      6.09E-06 Convergence criterion met
 Total energy in the final basis set = -155.03827504

                    Orbital Energies (a.u.)
 --------------------------------------------------------------

 Alpha MOs
 -- Occupied --
-19.2456 -10.3266 -10.2746  -1.1280  -0.8498  -0.7225  -0.6003  -0.5481
 -0.5278  -0.4807  -0.4306  -0.4176  -0.3606

                    Cartesian Multipole Moments
 -----------------------------------------------------------------
    Charge (ESU x 10^10)
                 0.0000
    Dipole Moment (Debye)
         X      -1.2449      Y      -0.3881      Z       1.2654
       Tot       1.8170
    Quadrupole Moments (Debye-Ang)
        XX     -11.3036     XY      -0.8179     YY     -19.7910
        XZ      -3.3468     YZ      -0.6456     ZZ     -19.3483

 Total job time:  11.07s(wall), 57.25s(cpu)
        *  Thank you very much for using Q-Chem.  Have a nice day.  *
