 Q-Chem 5.3 (devel), Q-Chem, Inc., Pleasanton, CA (2020)
 Q-Chem 5.3.0 for Intel X86 EM64T Linux

User input:
--------------------------------------------------------------
$rem
   JOBTYPE  sp
   EXCHANGE   omegaB97X-D
   BASIS   6-311+G(2df,2pd)
   UNRESTRICTED   False
   max_scf_cycles   250
   geom_opt_max_cycles   1500
   basis2 6-31G*
   scf_algorithm rca_diis
   SYM_IGNORE  TRUE
   print_input   true
   geom_opt_dmax   80
   pop_mulliken false
   XC_GRID 000075000302
$end

$molecule
0 1
C       -5.4737175014     0.3483948429     0.0625602753
C       -4.1137243990     1.2505061310     0.1357698509
H       -5.4480644148     -0.0755135258     -0.9433285766
H       -6.4777650773     0.7183690388     0.2660522803
H       -5.2846361535     -0.5116007281     0.7116012290
O       -2.9143555924     0.4422598384     -0.2658369366
H       -3.9243689220     1.6612154623     1.1294687955
H       -4.1178551627     2.0730600009     -0.5762702774
H       -2.8483227768     -0.2894710603     0.3502933597
$end
--------------------------------------------------------------

             Standard Nuclear Orientation (Angstroms)
    I     Atom           X                Y                Z
 ----------------------------------------------------------------
    1      C      -5.4737175014     0.3483948429     0.0625602753
    2      C      -4.1137243990     1.2505061310     0.1357698509
    3      H      -5.4480644148    -0.0755135258    -0.9433285766
    4      H      -6.4777650773     0.7183690388     0.2660522803
    5      H      -5.2846361535    -0.5116007281     0.7116012290
    6      O      -2.9143555924     0.4422598384    -0.2658369366
    7      H      -3.9243689220     1.6612154623     1.1294687955
    8      H      -4.1178551627     2.0730600009    -0.5762702774
    9      H      -2.8483227768    -0.2894710603     0.3502933597
 ----------------------------------------------------------------

    6    -154.9671976993      9.34E-05 Convergence criterion met
    6    -155.0352037203      5.80E-06 Convergence criterion met
 Total energy in the final basis set = -155.03520372

                    Orbital Energies (a.u.)
 --------------------------------------------------------------

 Alpha MOs
 -- Occupied --
-19.2494 -10.3442 -10.2859  -1.1041  -0.8337  -0.7291  -0.5813  -0.5304
 -0.5191  -0.4587  -0.4552  -0.4219  -0.3665

                    Cartesian Multipole Moments
 -----------------------------------------------------------------
    Charge (ESU x 10^10)
                -0.0000
    Dipole Moment (Debye)
         X      -1.3338      Y      -0.2569      Z       1.3121
       Tot       1.8885
    Quadrupole Moments (Debye-Ang)
        XX     -10.6960     XY      -0.9820     YY     -18.6369
        XZ      -3.5168     YZ      -0.2937     ZZ     -20.1425

 Total job time:  10.62s(wall), 54.79s(cpu)
        *  Thank you very much for using Q-Chem.  Have a nice day.  *
