 Q-Chem 5.3 (devel), Q-Chem, Inc., Pleasanton, CA (2020)
 Q-Chem 5.3.0 for Intel X86 EM64T Linux

User input:
--------------------------------------------------------------
$rem
   JOBTYPE  sp
   EXCHANGE   omegaB97X-D
   BASIS   6-311+G(2df,2pd)
   UNRESTRICTED   False
   max_scf_cycles   250
   geom_opt_max_cycles   1500
   basis2 6-31G*
   scf_algorithm rca_diis
   SYM_IGNORE  TRUE
   print_input   true
   geom_opt_dmax   80
   pop_mulliken false
   XC_GRID 000075000302
$end

$molecule
0 1
C       -5.3393810744     0.2514417284     0.0546972612
C       -4.1190894156     1.1401153407     0.1536597849
H       -5.4617529664     -0.1253917834     -0.9448411644
H       -6.4047916616     0.9335989222     0.3498071851
H       -5.2900056786     -0.4559770047     0.6421133687
O       -2.9342298139     0.4732767555     -0.2272350050
H       -4.0326208423     1.5528996461     1.1270668566
H       -4.2161219151     2.1157785224     -0.6524612934
H       -2.8048166320     -0.2685221271     0.3675030065
$end
--------------------------------------------------------------

             Standard Nuclear Orientation (Angstroms)
    I     Atom           X                Y                Z
 ----------------------------------------------------------------
    1      C      -5.3393810744     0.2514417284     0.0546972612
    2      C      -4.1190894156     1.1401153407     0.1536597849
    3      H      -5.4617529664    -0.1253917834    -0.9448411644
    4      H      -6.4047916616     0.9335989222     0.3498071851
    5      H      -5.2900056786    -0.4559770047     0.6421133687
    6      O      -2.9342298139     0.4732767555    -0.2272350050
    7      H      -4.0326208423     1.5528996461     1.1270668566
    8      H      -4.2161219151     2.1157785224    -0.6524612934
    9      H      -2.8048166320    -0.2685221271     0.3675030065
 ----------------------------------------------------------------

    7    -154.9234569920      9.99E-06 Convergence criterion met
    6    -154.9931363045      6.61E-06 Convergence criterion met
 Total energy in the final basis set = -154.99313630

                    Orbital Energies (a.u.)
 --------------------------------------------------------------

 Alpha MOs
 -- Occupied --
-19.2514 -10.3415 -10.2748  -1.1314  -0.8536  -0.7225  -0.6036  -0.5483
 -0.5196  -0.4766  -0.4414  -0.4039  -0.3668

                    Cartesian Multipole Moments
 -----------------------------------------------------------------
    Charge (ESU x 10^10)
                 0.0000
    Dipole Moment (Debye)
         X      -0.9779      Y      -0.7230      Z       1.3591
       Tot       1.8237
    Quadrupole Moments (Debye-Ang)
        XX     -14.0721     XY       0.9113     YY     -19.4822
        XZ      -3.7438     YZ      -0.1591     ZZ     -19.9278

 Total job time:  11.02s(wall), 56.82s(cpu)
        *  Thank you very much for using Q-Chem.  Have a nice day.  *
