 Q-Chem 5.3 (devel), Q-Chem, Inc., Pleasanton, CA (2020)
 Q-Chem 5.3.0 for Intel X86 EM64T Linux

User input:
--------------------------------------------------------------
$rem
   JOBTYPE  sp
   EXCHANGE   omegaB97X-D
   BASIS   6-311+G(2df,2pd)
   UNRESTRICTED   False
   max_scf_cycles   250
   geom_opt_max_cycles   1500
   basis2 6-31G*
   scf_algorithm rca_diis
   SYM_IGNORE  TRUE
   print_input   true
   geom_opt_dmax   80
   pop_mulliken false
   XC_GRID 000075000302
$end

$molecule
0 1
C       -5.3966468747     0.3501447289     0.0235101073
C       -4.1420186361     1.2060540531     0.1018047273
H       -5.5097754036     -0.0652235525     -0.9883534451
H       -6.1726695437     0.8560595939     0.2447016600
H       -5.3277453333     -0.5771092960     0.7924584822
O       -2.9652743776     0.5014751456     -0.2550346964
H       -4.0363621572     1.6342954521     1.1308533468
H       -4.2051177967     1.9500595479     -0.5173987509
H       -2.8471998771     -0.2385356728     0.3377685689
$end
--------------------------------------------------------------

             Standard Nuclear Orientation (Angstroms)
    I     Atom           X                Y                Z
 ----------------------------------------------------------------
    1      C      -5.3966468747     0.3501447289     0.0235101073
    2      C      -4.1420186361     1.2060540531     0.1018047273
    3      H      -5.5097754036    -0.0652235525    -0.9883534451
    4      H      -6.1726695437     0.8560595939     0.2447016600
    5      H      -5.3277453333    -0.5771092960     0.7924584822
    6      O      -2.9652743776     0.5014751456    -0.2550346964
    7      H      -4.0363621572     1.6342954521     1.1308533468
    8      H      -4.2051177967     1.9500595479    -0.5173987509
    9      H      -2.8471998771    -0.2385356728     0.3377685689
 ----------------------------------------------------------------

    7    -154.9477127020      7.43E-06 Convergence criterion met
    6    -155.0179221463      5.44E-06 Convergence criterion met
 Total energy in the final basis set = -155.01792215

                    Orbital Energies (a.u.)
 --------------------------------------------------------------

 Alpha MOs
 -- Occupied --
-19.2443 -10.3172 -10.2716  -1.1242  -0.8575  -0.7344  -0.5927  -0.5546
 -0.5318  -0.4727  -0.4531  -0.4157  -0.3610

                    Cartesian Multipole Moments
 -----------------------------------------------------------------
    Charge (ESU x 10^10)
                -0.0000
    Dipole Moment (Debye)
         X      -1.2486      Y      -0.2411      Z       1.1473
       Tot       1.7128
    Quadrupole Moments (Debye-Ang)
        XX     -11.3047     XY      -1.5330     YY     -18.6464
        XZ      -2.7902     YZ      -0.3654     ZZ     -19.9202

 Total job time:  11.06s(wall), 57.15s(cpu)
        *  Thank you very much for using Q-Chem.  Have a nice day.  *
