 Q-Chem 5.3 (devel), Q-Chem, Inc., Pleasanton, CA (2020)
 Q-Chem 5.3.0 for Intel X86 EM64T Linux

User input:
--------------------------------------------------------------
$rem
   JOBTYPE  sp
   EXCHANGE   omegaB97X-D
   BASIS   6-311+G(2df,2pd)
   UNRESTRICTED   False
   max_scf_cycles   250
   geom_opt_max_cycles   1500
   basis2 6-31G*
   scf_algorithm rca_diis
   SYM_IGNORE  TRUE
   print_input   true
   geom_opt_dmax   80
   pop_mulliken false
   XC_GRID 000075000302
$end

$molecule
0 1
C       -5.3643282859     0.2990264859     -0.0154366322
C       -4.1321077173     1.1800765824     0.0973261604
H       -5.4562609999     -0.0350637720     -0.8570750889
H       -6.3290882386     0.9182265724     0.2604303248
H       -5.3068363473     -0.5803512570     0.7295668228
O       -2.9450570906     0.4944011297     -0.2541497098
H       -4.0421672560     1.6089103304     1.1335520736
H       -4.2018367735     1.9796498301     -0.5614433854
H       -2.8251272909     -0.2476559018     0.3375394347
$end
--------------------------------------------------------------

             Standard Nuclear Orientation (Angstroms)
    I     Atom           X                Y                Z
 ----------------------------------------------------------------
    1      C      -5.3643282859     0.2990264859    -0.0154366322
    2      C      -4.1321077173     1.1800765824     0.0973261604
    3      H      -5.4562609999    -0.0350637720    -0.8570750889
    4      H      -6.3290882386     0.9182265724     0.2604303248
    5      H      -5.3068363473    -0.5803512570     0.7295668228
    6      O      -2.9450570906     0.4944011297    -0.2541497098
    7      H      -4.0421672560     1.6089103304     1.1335520736
    8      H      -4.2018367735     1.9796498301    -0.5614433854
    9      H      -2.8251272909    -0.2476559018     0.3375394347
 ----------------------------------------------------------------

    7    -154.9443184999      7.85E-06 Convergence criterion met
    6    -155.0144349535      5.89E-06 Convergence criterion met
 Total energy in the final basis set = -155.01443495

                    Orbital Energies (a.u.)
 --------------------------------------------------------------

 Alpha MOs
 -- Occupied --
-19.2466 -10.3251 -10.2702  -1.1267  -0.8554  -0.7313  -0.6004  -0.5465
 -0.5178  -0.4889  -0.4490  -0.4139  -0.3622

                    Cartesian Multipole Moments
 -----------------------------------------------------------------
    Charge (ESU x 10^10)
                 0.0000
    Dipole Moment (Debye)
         X      -1.1495      Y      -0.4285      Z       1.0851
       Tot       1.6378
    Quadrupole Moments (Debye-Ang)
        XX     -12.3588     XY      -0.5702     YY     -18.8819
        XZ      -2.4459     YZ      -0.4010     ZZ     -19.9851

 Total job time:  11.12s(wall), 57.33s(cpu)
        *  Thank you very much for using Q-Chem.  Have a nice day.  *
