 Q-Chem 5.3 (devel), Q-Chem, Inc., Pleasanton, CA (2020)
 Q-Chem 5.3.0 for Intel X86 EM64T Linux

User input:
--------------------------------------------------------------
$rem
   JOBTYPE  sp
   EXCHANGE   omegaB97X-D
   BASIS   6-311+G(2df,2pd)
   UNRESTRICTED   False
   max_scf_cycles   250
   geom_opt_max_cycles   1500
   basis2 6-31G*
   scf_algorithm rca_diis
   SYM_IGNORE  TRUE
   print_input   true
   geom_opt_dmax   80
   pop_mulliken false
   XC_GRID 000075000302
$end

$molecule
0 1
C       -5.3484502298     0.3337991524     0.0284072652
C       -4.1175704161     1.1876524126     0.1192675311
H       -5.4919293535     -0.1287098550     -1.1201540099
H       -6.3900862061     0.9954050596     0.3192689668
H       -5.2906628161     -0.6731869000     0.8582117984
O       -2.9383562420     0.4959263329     -0.2451606299
H       -4.0172297191     1.6166866467     1.1440684181
H       -4.1898600536     2.0363744333     -0.5822862591
H       -2.8186649637     -0.2467272825     0.3486869194
$end
--------------------------------------------------------------

             Standard Nuclear Orientation (Angstroms)
    I     Atom           X                Y                Z
 ----------------------------------------------------------------
    1      C      -5.3484502298     0.3337991524     0.0284072652
    2      C      -4.1175704161     1.1876524126     0.1192675311
    3      H      -5.4919293535    -0.1287098550    -1.1201540099
    4      H      -6.3900862061     0.9954050596     0.3192689668
    5      H      -5.2906628161    -0.6731869000     0.8582117984
    6      O      -2.9383562420     0.4959263329    -0.2451606299
    7      H      -4.0172297191     1.6166866467     1.1440684181
    8      H      -4.1898600536     2.0363744333    -0.5822862591
    9      H      -2.8186649637    -0.2467272825     0.3486869194
 ----------------------------------------------------------------

    6    -154.9393937611      5.36E-05 Convergence criterion met
    6    -155.0060333995      7.50E-06 Convergence criterion met
 Total energy in the final basis set = -155.00603340

                    Orbital Energies (a.u.)
 --------------------------------------------------------------

 Alpha MOs
 -- Occupied --
-19.2499 -10.3359 -10.3284  -1.1294  -0.8397  -0.7020  -0.5941  -0.5389
 -0.5165  -0.4548  -0.4338  -0.4069  -0.3665

                    Cartesian Multipole Moments
 -----------------------------------------------------------------
    Charge (ESU x 10^10)
                 0.0000
    Dipole Moment (Debye)
         X      -1.0058      Y      -0.2719      Z       1.1736
       Tot       1.5694
    Quadrupole Moments (Debye-Ang)
        XX     -14.1226     XY      -1.3076     YY     -19.2140
        XZ      -2.8845     YZ      -0.2862     ZZ     -20.3041

 Total job time:  10.75s(wall), 55.24s(cpu)
        *  Thank you very much for using Q-Chem.  Have a nice day.  *
