 Q-Chem 5.3 (devel), Q-Chem, Inc., Pleasanton, CA (2020)
 Q-Chem 5.3.0 for Intel X86 EM64T Linux

User input:
--------------------------------------------------------------
$rem
   JOBTYPE  sp
   EXCHANGE   omegaB97X-D
   BASIS   6-311+G(2df,2pd)
   UNRESTRICTED   False
   max_scf_cycles   250
   geom_opt_max_cycles   1500
   basis2 6-31G*
   scf_algorithm rca_diis
   SYM_IGNORE  TRUE
   print_input   true
   geom_opt_dmax   80
   pop_mulliken false
   XC_GRID 000075000302
$end

$molecule
0 1
C       -5.3775775238     0.3018511270     0.0299261974
C       -4.1358577250     1.1604769496     0.0908938265
H       -5.4986375649     -0.1085286838     -0.9813858649
H       -6.2542881505     0.8726745027     0.2748612481
H       -5.3159952113     -0.5217268153     0.7233089556
O       -2.9569798944     0.4732084279     -0.2623585318
H       -4.0116422038     1.6721083571     1.2888091210
H       -4.2174814072     2.0310537903     -0.6300263712
H       -2.8343503191     -0.2638976556     0.3362814194
$end
--------------------------------------------------------------

             Standard Nuclear Orientation (Angstroms)
    I     Atom           X                Y                Z
 ----------------------------------------------------------------
    1      C      -5.3775775238     0.3018511270     0.0299261974
    2      C      -4.1358577250     1.1604769496     0.0908938265
    3      H      -5.4986375649    -0.1085286838    -0.9813858649
    4      H      -6.2542881505     0.8726745027     0.2748612481
    5      H      -5.3159952113    -0.5217268153     0.7233089556
    6      O      -2.9569798944     0.4732084279    -0.2623585318
    7      H      -4.0116422038     1.6721083571     1.2888091210
    8      H      -4.2174814072     2.0310537903    -0.6300263712
    9      H      -2.8343503191    -0.2638976556     0.3362814194
 ----------------------------------------------------------------

    6    -154.9645701126      9.27E-05 Convergence criterion met
    6    -155.0319743289      6.81E-06 Convergence criterion met
 Total energy in the final basis set = -155.03197433

                    Orbital Energies (a.u.)
 --------------------------------------------------------------

 Alpha MOs
 -- Occupied --
-19.2527 -10.3529 -10.2749  -1.1321  -0.8498  -0.7162  -0.5831  -0.5472
 -0.5254  -0.4674  -0.4618  -0.4080  -0.3584

                    Cartesian Multipole Moments
 -----------------------------------------------------------------
    Charge (ESU x 10^10)
                -0.0000
    Dipole Moment (Debye)
         X      -1.1694      Y      -0.6292      Z       1.0059
       Tot       1.6659
    Quadrupole Moments (Debye-Ang)
        XX     -11.9638     XY       0.2597     YY     -19.5584
        XZ      -2.2953     YZ      -0.7589     ZZ     -20.3240

 Total job time:  10.81s(wall), 55.54s(cpu)
        *  Thank you very much for using Q-Chem.  Have a nice day.  *
