 Q-Chem 5.3 (devel), Q-Chem, Inc., Pleasanton, CA (2020)
 Q-Chem 5.3.0 for Intel X86 EM64T Linux

User input:
--------------------------------------------------------------
$rem
   JOBTYPE  sp
   EXCHANGE   omegaB97X-D
   BASIS   6-311+G(2df,2pd)
   UNRESTRICTED   False
   max_scf_cycles   250
   geom_opt_max_cycles   1500
   basis2 6-31G*
   scf_algorithm rca_diis
   SYM_IGNORE  TRUE
   print_input   true
   geom_opt_dmax   80
   pop_mulliken false
   XC_GRID 000075000302
$end

$molecule
0 1
C       -5.3757355234     0.3061320890     0.0329825959
C       -4.1343727247     1.1701650173     0.1066605146
H       -5.4946548544     -0.0989385343     -0.9762582495
H       -6.2597884396     0.8799710641     0.2810349951
H       -5.3144483743     -0.5252659548     0.7279194806
O       -2.9548259513     0.4817774580     -0.2531968124
H       -4.0236315555     1.6368013846     1.2091656743
H       -4.2131535773     2.0237249444     -0.6009175682
H       -2.8321989994     -0.2571474683     0.3429193697
$end
--------------------------------------------------------------

             Standard Nuclear Orientation (Angstroms)
    I     Atom           X                Y                Z
 ----------------------------------------------------------------
    1      C      -5.3757355234     0.3061320890     0.0329825959
    2      C      -4.1343727247     1.1701650173     0.1066605146
    3      H      -5.4946548544    -0.0989385343    -0.9762582495
    4      H      -6.2597884396     0.8799710641     0.2810349951
    5      H      -5.3144483743    -0.5252659548     0.7279194806
    6      O      -2.9548259513     0.4817774580    -0.2531968124
    7      H      -4.0236315555     1.6368013846     1.2091656743
    8      H      -4.2131535773     2.0237249444    -0.6009175682
    9      H      -2.8321989994    -0.2571474683     0.3429193697
 ----------------------------------------------------------------

    6    -154.9775761097      9.50E-05 Convergence criterion met
    6    -155.0452799295      6.07E-06 Convergence criterion met
 Total energy in the final basis set = -155.04527993

                    Orbital Energies (a.u.)
 --------------------------------------------------------------

 Alpha MOs
 -- Occupied --
-19.2491 -10.3406 -10.2744  -1.1287  -0.8491  -0.7186  -0.5886  -0.5458
 -0.5246  -0.4683  -0.4598  -0.4096  -0.3610

                    Cartesian Multipole Moments
 -----------------------------------------------------------------
    Charge (ESU x 10^10)
                 0.0000
    Dipole Moment (Debye)
         X      -1.1719      Y      -0.5110      Z       1.1422
       Tot       1.7144
    Quadrupole Moments (Debye-Ang)
        XX     -12.0418     XY      -0.2341     YY     -19.2329
        XZ      -2.8476     YZ      -0.5006     ZZ     -20.1079

 Total job time:  10.88s(wall), 55.96s(cpu)
        *  Thank you very much for using Q-Chem.  Have a nice day.  *
