 Q-Chem 5.3 (devel), Q-Chem, Inc., Pleasanton, CA (2020)
 Q-Chem 5.3.0 for Intel X86 EM64T Linux

User input:
--------------------------------------------------------------
$rem
   JOBTYPE  sp
   EXCHANGE   omegaB97X-D
   BASIS   6-311+G(2df,2pd)
   UNRESTRICTED   False
   max_scf_cycles   250
   geom_opt_max_cycles   1500
   basis2 6-31G*
   scf_algorithm rca_diis
   SYM_IGNORE  TRUE
   print_input   true
   geom_opt_dmax   80
   pop_mulliken false
   XC_GRID 000075000302
$end

$molecule
0 1
C       -5.3739015644     0.3103828479     0.0359844482
C       -4.1329966799     1.1797398635     0.1225775852
H       -5.4906299103     -0.0893361133     -0.9711879115
H       -6.2653293757     0.8871742516     0.2871686603
H       -5.3129491568     -0.5289028814     0.7323756746
O       -2.9527694211     0.4903434571     -0.2439521498
H       -4.0351786776     1.6019212828     1.1293639002
H       -4.2089333852     2.0163330192     -0.5715952114
H       -2.8301218289     -0.2504357274     0.3495750043
$end
--------------------------------------------------------------

             Standard Nuclear Orientation (Angstroms)
    I     Atom           X                Y                Z
 ----------------------------------------------------------------
    1      C      -5.3739015644     0.3103828479     0.0359844482
    2      C      -4.1329966799     1.1797398635     0.1225775852
    3      H      -5.4906299103    -0.0893361133    -0.9711879115
    4      H      -6.2653293757     0.8871742516     0.2871686603
    5      H      -5.3129491568    -0.5289028814     0.7323756746
    6      O      -2.9527694211     0.4903434571    -0.2439521498
    7      H      -4.0351786776     1.6019212828     1.1293639002
    8      H      -4.2089333852     2.0163330192    -0.5715952114
    9      H      -2.8301218289    -0.2504357274     0.3495750043
 ----------------------------------------------------------------

    7    -154.9827028590      7.47E-06 Convergence criterion met
    6    -155.0509443181      5.66E-06 Convergence criterion met
 Total energy in the final basis set = -155.05094432

                    Orbital Energies (a.u.)
 --------------------------------------------------------------

 Alpha MOs
 -- Occupied --
-19.2462 -10.3273 -10.2744  -1.1261  -0.8498  -0.7230  -0.5962  -0.5451
 -0.5236  -0.4698  -0.4582  -0.4120  -0.3626

                    Cartesian Multipole Moments
 -----------------------------------------------------------------
    Charge (ESU x 10^10)
                 0.0000
    Dipole Moment (Debye)
         X      -1.1766      Y      -0.4154      Z       1.2430
       Tot       1.7612
    Quadrupole Moments (Debye-Ang)
        XX     -12.0735     XY      -0.6411     YY     -18.9449
        XZ      -3.2607     YZ      -0.3010     ZZ     -19.9332

 Total job time:  11.07s(wall), 57.15s(cpu)
        *  Thank you very much for using Q-Chem.  Have a nice day.  *
