 Q-Chem 5.3 (devel), Q-Chem, Inc., Pleasanton, CA (2020)
 Q-Chem 5.3.0 for Intel X86 EM64T Linux

User input:
--------------------------------------------------------------
$rem
   JOBTYPE  sp
   EXCHANGE   omegaB97X-D
   BASIS   6-311+G(2df,2pd)
   UNRESTRICTED   False
   max_scf_cycles   250
   geom_opt_max_cycles   1500
   basis2 6-31G*
   scf_algorithm rca_diis
   SYM_IGNORE  TRUE
   print_input   true
   geom_opt_dmax   80
   pop_mulliken false
   XC_GRID 000075000302
$end

$molecule
0 1
C       -5.5079708882     0.3616957392     0.0715557740
C       -4.1080302415     1.2738744775     0.1401002878
H       -5.4339657278     -0.0679682948     -0.9302126077
H       -6.5386969882     0.6583856344     0.2576752263
H       -5.2752643291     -0.5018168782     0.7024020391
O       -2.9040044218     0.4255693450     -0.2728295457
H       -3.8895387434     1.6790411028     1.1285006894
H       -4.0891457531     2.0903070962     -0.5778063271
H       -2.8561929068     -0.3018682221     0.3509244642
$end
--------------------------------------------------------------

             Standard Nuclear Orientation (Angstroms)
    I     Atom           X                Y                Z
 ----------------------------------------------------------------
    1      C      -5.5079708882     0.3616957392     0.0715557740
    2      C      -4.1080302415     1.2738744775     0.1401002878
    3      H      -5.4339657278    -0.0679682948    -0.9302126077
    4      H      -6.5386969882     0.6583856344     0.2576752263
    5      H      -5.2752643291    -0.5018168782     0.7024020391
    6      O      -2.9040044218     0.4255693450    -0.2728295457
    7      H      -3.8895387434     1.6790411028     1.1285006894
    8      H      -4.0891457531     2.0903070962    -0.5778063271
    9      H      -2.8561929068    -0.3018682221     0.3509244642
 ----------------------------------------------------------------

    7    -154.9561087552      1.65E-05 Convergence criterion met
    6    -155.0242906512      6.11E-06 Convergence criterion met
 Total energy in the final basis set = -155.02429065

                    Orbital Energies (a.u.)
 --------------------------------------------------------------

 Alpha MOs
 -- Occupied --
-19.2505 -10.3500 -10.2894  -1.0982  -0.8300  -0.7316  -0.5771  -0.5279
 -0.5175  -0.4569  -0.4508  -0.4242  -0.3676

                    Cartesian Multipole Moments
 -----------------------------------------------------------------
    Charge (ESU x 10^10)
                 0.0000
    Dipole Moment (Debye)
         X      -1.3629      Y      -0.2087      Z       1.3286
       Tot       1.9148
    Quadrupole Moments (Debye-Ang)
        XX     -10.4355     XY      -1.0118     YY     -18.5326
        XZ      -3.5646     YZ      -0.2944     ZZ     -20.2318

 Total job time:  10.76s(wall), 55.85s(cpu)
        *  Thank you very much for using Q-Chem.  Have a nice day.  *
