 Q-Chem 5.3 (devel), Q-Chem, Inc., Pleasanton, CA (2020)
 Q-Chem 5.3.0 for Intel X86 EM64T Linux

User input:
--------------------------------------------------------------
$rem
   JOBTYPE  sp
   EXCHANGE   omegaB97X-D
   BASIS   6-311+G(2df,2pd)
   UNRESTRICTED   False
   max_scf_cycles   250
   geom_opt_max_cycles   1500
   basis2 6-31G*
   scf_algorithm rca_diis
   SYM_IGNORE  TRUE
   print_input   true
   geom_opt_dmax   80
   pop_mulliken false
   XC_GRID 000075000302
$end

$molecule
0 1
C       -5.3882333383     0.3458839755     0.0343848906
C       -4.1562718090     1.1653785588     0.1352777986
H       -5.4731148639     -0.0750750119     -0.9668694316
H       -6.3034018154     0.8765326092     0.2947477838
H       -5.2678388100     -0.4880798662     0.7300238842
O       -2.9687577317     0.4797572442     -0.2326982635
H       -4.0792786342     1.6047929850     1.1356823653
H       -4.1853321445     1.9858071314     -0.5808837568
H       -2.7805808529     -0.2777776261     0.3206447295
$end
--------------------------------------------------------------

             Standard Nuclear Orientation (Angstroms)
    I     Atom           X                Y                Z
 ----------------------------------------------------------------
    1      C      -5.3882333383     0.3458839755     0.0343848906
    2      C      -4.1562718090     1.1653785588     0.1352777986
    3      H      -5.4731148639    -0.0750750119    -0.9668694316
    4      H      -6.3034018154     0.8765326092     0.2947477838
    5      H      -5.2678388100    -0.4880798662     0.7300238842
    6      O      -2.9687577317     0.4797572442    -0.2326982635
    7      H      -4.0792786342     1.6047929850     1.1356823653
    8      H      -4.1853321445     1.9858071314    -0.5808837568
    9      H      -2.7805808529    -0.2777776261     0.3206447295
 ----------------------------------------------------------------

    7    -154.9797359893      8.94E-06 Convergence criterion met
    6    -155.0484709149      5.72E-06 Convergence criterion met
 Total energy in the final basis set = -155.04847091

                    Orbital Energies (a.u.)
 --------------------------------------------------------------

 Alpha MOs
 -- Occupied --
-19.2455 -10.3247 -10.2718  -1.1227  -0.8576  -0.7228  -0.5981  -0.5477
 -0.5266  -0.4681  -0.4535  -0.4074  -0.3651

                    Cartesian Multipole Moments
 -----------------------------------------------------------------
    Charge (ESU x 10^10)
                 0.0000
    Dipole Moment (Debye)
         X      -1.1132      Y      -0.4700      Z       1.2163
       Tot       1.7145
    Quadrupole Moments (Debye-Ang)
        XX     -12.1784     XY      -0.6259     YY     -19.1055
        XZ      -3.2606     YZ      -0.2123     ZZ     -19.9615

 Total job time:  11.12s(wall), 57.35s(cpu)
        *  Thank you very much for using Q-Chem.  Have a nice day.  *
