 Q-Chem 5.3 (devel), Q-Chem, Inc., Pleasanton, CA (2020)
 Q-Chem 5.3.0 for Intel X86 EM64T Linux

User input:
--------------------------------------------------------------
$rem
   JOBTYPE  sp
   EXCHANGE   omegaB97X-D
   BASIS   6-311+G(2df,2pd)
   UNRESTRICTED   False
   max_scf_cycles   250
   geom_opt_max_cycles   1500
   basis2 6-31G*
   scf_algorithm rca_diis
   SYM_IGNORE  TRUE
   print_input   true
   geom_opt_dmax   80
   pop_mulliken false
   XC_GRID 000075000302
$end

$molecule
0 1
C       -5.2888224050     0.3657003283     0.0585766649
C       -4.1638656119     1.3121224264     0.1757611124
H       -5.1549185715     -0.0061997035     -0.9566724598
H       -6.3325940687     0.6012184293     0.2483548159
H       -4.9874725567     -0.4680782954     0.7005761643
O       -3.3347506226     0.2920736874     -0.3088827171
H       -3.8476304675     1.7648720112     1.1214875605
H       -4.1991644859     2.1214193856     -0.5529989114
H       -3.2935912100     -0.3659082694     0.3841077703
$end
--------------------------------------------------------------

             Standard Nuclear Orientation (Angstroms)
    I     Atom           X                Y                Z
 ----------------------------------------------------------------
    1      C      -5.2888224050     0.3657003283     0.0585766649
    2      C      -4.1638656119     1.3121224264     0.1757611124
    3      H      -5.1549185715    -0.0061997035    -0.9566724598
    4      H      -6.3325940687     0.6012184293     0.2483548159
    5      H      -4.9874725567    -0.4680782954     0.7005761643
    6      O      -3.3347506226     0.2920736874    -0.3088827171
    7      H      -3.8476304675     1.7648720112     1.1214875605
    8      H      -4.1991644859     2.1214193856    -0.5529989114
    9      H      -3.2935912100    -0.3659082694     0.3841077703
 ----------------------------------------------------------------

    6    -154.9288619203      7.52E-05 Convergence criterion met
    6    -154.9976673838      6.99E-06 Convergence criterion met
 Total energy in the final basis set = -154.99766738

                    Orbital Energies (a.u.)
 --------------------------------------------------------------

 Alpha MOs
 -- Occupied --
-19.2385 -10.3258 -10.2668  -1.1488  -0.8409  -0.7306  -0.6153  -0.5589
 -0.5215  -0.4636  -0.4409  -0.4201  -0.3441

                    Cartesian Multipole Moments
 -----------------------------------------------------------------
    Charge (ESU x 10^10)
                -0.0000
    Dipole Moment (Debye)
         X      -0.6039      Y       0.0523      Z       1.3089
       Tot       1.4424
    Quadrupole Moments (Debye-Ang)
        XX     -17.3984     XY      -1.1216     YY     -17.8646
        XZ      -3.5927     YZ      -0.3073     ZZ     -19.8452

 Total job time:  11.36s(wall), 58.49s(cpu)
        *  Thank you very much for using Q-Chem.  Have a nice day.  *
