 Q-Chem 5.3 (devel), Q-Chem, Inc., Pleasanton, CA (2020)
 Q-Chem 5.3.0 for Intel X86 EM64T Linux

User input:
--------------------------------------------------------------
$rem
   JOBTYPE  sp
   EXCHANGE   omegaB97X-D
   BASIS   6-311+G(2df,2pd)
   UNRESTRICTED   False
   max_scf_cycles   250
   geom_opt_max_cycles   1500
   basis2 6-31G*
   scf_algorithm rca_diis
   SYM_IGNORE  TRUE
   print_input   true
   geom_opt_dmax   80
   pop_mulliken false
   XC_GRID 000075000302
$end

$molecule
0 1
C       -5.3296160678     0.2030525051     0.0469397029
C       -4.0673241671     1.2196584748     0.0857716926
H       -5.5351287863     -0.1263261518     -0.9727166833
H       -6.1397958791     0.9105259151     0.2569213259
H       -5.4458473341     -0.6398175654     0.7300615968
O       -2.9134064494     0.5095601083     -0.2715304330
H       -3.9014314658     1.5930143012     1.1052428224
H       -4.2760330119     2.0930185689     -0.5333411244
H       -2.9942268382     -0.1454661562     0.4229611004
$end
--------------------------------------------------------------

             Standard Nuclear Orientation (Angstroms)
    I     Atom           X                Y                Z
 ----------------------------------------------------------------
    1      C      -5.3296160678     0.2030525051     0.0469397029
    2      C      -4.0673241671     1.2196584748     0.0857716926
    3      H      -5.5351287863    -0.1263261518    -0.9727166833
    4      H      -6.1397958791     0.9105259151     0.2569213259
    5      H      -5.4458473341    -0.6398175654     0.7300615968
    6      O      -2.9134064494     0.5095601083    -0.2715304330
    7      H      -3.9014314658     1.5930143012     1.1052428224
    8      H      -4.2760330119     2.0930185689    -0.5333411244
    9      H      -2.9942268382    -0.1454661562     0.4229611004
 ----------------------------------------------------------------

    6    -154.9626721673      7.90E-05 Convergence criterion met
    6    -155.0305363544      5.77E-06 Convergence criterion met
 Total energy in the final basis set = -155.03053635

                    Orbital Energies (a.u.)
 --------------------------------------------------------------

 Alpha MOs
 -- Occupied --
-19.2476 -10.3389 -10.2809  -1.1392  -0.8320  -0.7239  -0.5953  -0.5408
 -0.5225  -0.4711  -0.4675  -0.4181  -0.3531

                    Cartesian Multipole Moments
 -----------------------------------------------------------------
    Charge (ESU x 10^10)
                 0.0000
    Dipole Moment (Debye)
         X      -1.3728      Y      -0.1654      Z       1.2861
       Tot       1.8884
    Quadrupole Moments (Debye-Ang)
        XX     -11.4959     XY      -0.9844     YY     -18.4766
        XZ      -3.2517     YZ      -0.5059     ZZ     -19.9121

 Total job time:  10.86s(wall), 55.80s(cpu)
        *  Thank you very much for using Q-Chem.  Have a nice day.  *
