 Q-Chem 5.3 (devel), Q-Chem, Inc., Pleasanton, CA (2020)
 Q-Chem 5.3.0 for Intel X86 EM64T Linux

User input:
--------------------------------------------------------------
$rem
   JOBTYPE  sp
   EXCHANGE   omegaB97X-D
   BASIS   6-311+G(2df,2pd)
   UNRESTRICTED   False
   max_scf_cycles   250
   geom_opt_max_cycles   1500
   basis2 6-31G*
   scf_algorithm rca_diis
   SYM_IGNORE  TRUE
   print_input   true
   geom_opt_dmax   80
   pop_mulliken false
   XC_GRID 000075000302
$end

$molecule
0 1
C       -5.2497428857     0.2696126518     0.0039808468
C       -4.1634128020     1.0864366198     0.1049612291
H       -5.5383794135     -0.0828443194     -0.9831581062
H       -5.9293137604     1.0723830470     0.3032204523
H       -5.3432971572     -0.5210284691     0.7486438534
O       -3.0236010671     0.5473670055     -0.2140250183
H       -4.1931603253     1.5106648369     1.1214386428
H       -4.3388637949     1.9307857096     -0.5651544640
H       -2.8230387938     -0.1961570821     0.3504025642
$end
--------------------------------------------------------------

             Standard Nuclear Orientation (Angstroms)
    I     Atom           X                Y                Z
 ----------------------------------------------------------------
    1      C      -5.2497428857     0.2696126518     0.0039808468
    2      C      -4.1634128020     1.0864366198     0.1049612291
    3      H      -5.5383794135    -0.0828443194    -0.9831581062
    4      H      -5.9293137604     1.0723830470     0.3032204523
    5      H      -5.3432971572    -0.5210284691     0.7486438534
    6      O      -3.0236010671     0.5473670055    -0.2140250183
    7      H      -4.1931603253     1.5106648369     1.1214386428
    8      H      -4.3388637949     1.9307857096    -0.5651544640
    9      H      -2.8230387938    -0.1961570821     0.3504025642
 ----------------------------------------------------------------

    6    -154.9381777500      7.04E-05 Convergence criterion met
    6    -155.0095346247      6.91E-06 Convergence criterion met
 Total energy in the final basis set = -155.00953462

                    Orbital Energies (a.u.)
 --------------------------------------------------------------

 Alpha MOs
 -- Occupied --
-19.2419 -10.3074 -10.2572  -1.1664  -0.8868  -0.7209  -0.6220  -0.5745
 -0.5423  -0.4785  -0.4455  -0.3946  -0.3568

                    Cartesian Multipole Moments
 -----------------------------------------------------------------
    Charge (ESU x 10^10)
                -0.0000
    Dipole Moment (Debye)
         X      -0.8420      Y      -0.6366      Z       1.1113
       Tot       1.5327
    Quadrupole Moments (Debye-Ang)
        XX     -14.8054     XY       0.2109     YY     -19.4157
        XZ      -2.7285     YZ      -0.3486     ZZ     -19.7904

 Total job time:  11.20s(wall), 57.63s(cpu)
        *  Thank you very much for using Q-Chem.  Have a nice day.  *
