 Q-Chem 5.3 (devel), Q-Chem, Inc., Pleasanton, CA (2020)
 Q-Chem 5.3.0 for Intel X86 EM64T Linux

User input:
--------------------------------------------------------------
$rem
   JOBTYPE  sp
   EXCHANGE   omegaB97X-D
   BASIS   6-311+G(2df,2pd)
   UNRESTRICTED   False
   max_scf_cycles   250
   geom_opt_max_cycles   1500
   basis2 6-31G*
   scf_algorithm rca_diis
   SYM_IGNORE  TRUE
   print_input   true
   geom_opt_dmax   80
   pop_mulliken false
   XC_GRID 000075000302
$end

$molecule
0 1
C       -5.4159794562     0.3772992801     0.0533837228
C       -4.2126944620     1.3256186883     0.1744704615
H       -5.4745573241     -0.1734026077     -0.8882670576
H       -6.2707345300     0.9932641919     0.3319720066
H       -5.3431915489     -0.5689426209     0.6009725260
O       -2.9856797187     0.6466864171     -0.2032364756
H       -3.9360419330     1.3076937741     1.2166642318
H       -4.1283325889     1.8152846248     -0.7832697764
H       -2.8355984382     -0.1062817477     0.3676203610
$end
--------------------------------------------------------------

             Standard Nuclear Orientation (Angstroms)
    I     Atom           X                Y                Z
 ----------------------------------------------------------------
    1      C      -5.4159794562     0.3772992801     0.0533837228
    2      C      -4.2126944620     1.3256186883     0.1744704615
    3      H      -5.4745573241    -0.1734026077    -0.8882670576
    4      H      -6.2707345300     0.9932641919     0.3319720066
    5      H      -5.3431915489    -0.5689426209     0.6009725260
    6      O      -2.9856797187     0.6466864171    -0.2032364756
    7      H      -3.9360419330     1.3076937741     1.2166642318
    8      H      -4.1283325889     1.8152846248    -0.7832697764
    9      H      -2.8355984382    -0.1062817477     0.3676203610
 ----------------------------------------------------------------

    7    -154.9087191402      1.04E-05 Convergence criterion met
    6    -154.9805199772      6.31E-06 Convergence criterion met
 Total energy in the final basis set = -154.98051998

                    Orbital Energies (a.u.)
 --------------------------------------------------------------

 Alpha MOs
 -- Occupied --
-19.2350 -10.3302 -10.2751  -1.1188  -0.8494  -0.7263  -0.6179  -0.5509
 -0.5141  -0.4576  -0.4372  -0.4099  -0.3491

                    Cartesian Multipole Moments
 -----------------------------------------------------------------
    Charge (ESU x 10^10)
                -0.0000
    Dipole Moment (Debye)
         X      -1.1072      Y      -0.7445      Z       1.1417
       Tot       1.7560
    Quadrupole Moments (Debye-Ang)
        XX     -13.1685     XY       0.8023     YY     -20.0897
        XZ      -2.8806     YZ      -0.3053     ZZ     -19.6394

 Total job time:  11.33s(wall), 58.55s(cpu)
        *  Thank you very much for using Q-Chem.  Have a nice day.  *
