 Q-Chem 5.3 (devel), Q-Chem, Inc., Pleasanton, CA (2020)
 Q-Chem 5.3.0 for Intel X86 EM64T Linux

User input:
--------------------------------------------------------------
$rem
   JOBTYPE  sp
   EXCHANGE   omegaB97X-D
   BASIS   6-311+G(2df,2pd)
   UNRESTRICTED   False
   max_scf_cycles   250
   geom_opt_max_cycles   1500
   basis2 6-31G*
   scf_algorithm rca_diis
   SYM_IGNORE  TRUE
   print_input   true
   geom_opt_dmax   80
   pop_mulliken false
   XC_GRID 000075000302
$end

$molecule
0 1
C       -5.3881078358     0.3001630982     0.0316481903
C       -4.1261805709     1.1520951653     0.1128345761
H       -5.5482376661     -0.0953678001     -0.9712717472
H       -6.2414158611     0.9293685251     0.2923688570
H       -5.3670844595     -0.5345546781     0.7352348633
O       -2.9009780482     0.5267451490     -0.2292553751
H       -4.0637176677     1.5681196618     1.1251518058
H       -4.2113654370     1.9935946216     -0.5743271011
H       -2.7557224536     -0.2229437427     0.3479259311
$end
--------------------------------------------------------------

             Standard Nuclear Orientation (Angstroms)
    I     Atom           X                Y                Z
 ----------------------------------------------------------------
    1      C      -5.3881078358     0.3001630982     0.0316481903
    2      C      -4.1261805709     1.1520951653     0.1128345761
    3      H      -5.5482376661    -0.0953678001    -0.9712717472
    4      H      -6.2414158611     0.9293685251     0.2923688570
    5      H      -5.3670844595    -0.5345546781     0.7352348633
    6      O      -2.9009780482     0.5267451490    -0.2292553751
    7      H      -4.0637176677     1.5681196618     1.1251518058
    8      H      -4.2113654370     1.9935946216    -0.5743271011
    9      H      -2.7557224536    -0.2229437427     0.3479259311
 ----------------------------------------------------------------

    7    -154.9817656797      7.36E-06 Convergence criterion met
    6    -155.0500332846      5.62E-06 Convergence criterion met
 Total energy in the final basis set = -155.05003328

                    Orbital Energies (a.u.)
 --------------------------------------------------------------

 Alpha MOs
 -- Occupied --
-19.2473 -10.3279 -10.2759  -1.1248  -0.8506  -0.7228  -0.5953  -0.5444
 -0.5219  -0.4708  -0.4585  -0.4123  -0.3622

                    Cartesian Multipole Moments
 -----------------------------------------------------------------
    Charge (ESU x 10^10)
                 0.0000
    Dipole Moment (Debye)
         X      -1.2030      Y      -0.5007      Z       1.2115
       Tot       1.7792
    Quadrupole Moments (Debye-Ang)
        XX     -11.7822     XY      -0.4848     YY     -19.1466
        XZ      -3.1285     YZ      -0.2969     ZZ     -19.9505

 Total job time:  10.96s(wall), 56.57s(cpu)
        *  Thank you very much for using Q-Chem.  Have a nice day.  *
