 Q-Chem 5.3 (devel), Q-Chem, Inc., Pleasanton, CA (2020)
 Q-Chem 5.3.0 for Intel X86 EM64T Linux

User input:
--------------------------------------------------------------
$rem
   JOBTYPE  sp
   EXCHANGE   omegaB97X-D
   BASIS   6-311+G(2df,2pd)
   UNRESTRICTED   False
   max_scf_cycles   250
   geom_opt_max_cycles   1500
   basis2 6-31G*
   scf_algorithm rca_diis
   SYM_IGNORE  TRUE
   print_input   true
   geom_opt_dmax   80
   pop_mulliken false
   XC_GRID 000075000302
$end

$molecule
0 1
C       -5.3014192664     0.1324353639     0.0592665190
C       -4.0272404623     1.2431108710     0.0623740375
H       -5.5591647950     -0.1440856355     -0.9650781104
H       -6.0515677647     0.9169408391     0.2322053904
H       -5.5280113190     -0.7044375099     0.7205094875
O       -2.8952145888     0.5101690167     -0.2824164079
H       -3.8123655746     1.5867917398     1.0847057019
H       -4.3147223373     2.1323912719     -0.5011374326
H       -3.1131038918     -0.0560959571     0.4598808146
$end
--------------------------------------------------------------

             Standard Nuclear Orientation (Angstroms)
    I     Atom           X                Y                Z
 ----------------------------------------------------------------
    1      C      -5.3014192664     0.1324353639     0.0592665190
    2      C      -4.0272404623     1.2431108710     0.0623740375
    3      H      -5.5591647950    -0.1440856355    -0.9650781104
    4      H      -6.0515677647     0.9169408391     0.2322053904
    5      H      -5.5280113190    -0.7044375099     0.7205094875
    6      O      -2.8952145888     0.5101690167    -0.2824164079
    7      H      -3.8123655746     1.5867917398     1.0847057019
    8      H      -4.3147223373     2.1323912719    -0.5011374326
    9      H      -3.1131038918    -0.0560959571     0.4598808146
 ----------------------------------------------------------------

    6    -154.9280753371      6.94E-05 Convergence criterion met
    6    -154.9966237395      6.28E-06 Convergence criterion met
 Total energy in the final basis set = -154.99662374

                    Orbital Energies (a.u.)
 --------------------------------------------------------------

 Alpha MOs
 -- Occupied --
-19.2481 -10.3506 -10.2837  -1.1510  -0.8244  -0.7253  -0.6000  -0.5391
 -0.5272  -0.4722  -0.4680  -0.4164  -0.3455

                    Cartesian Multipole Moments
 -----------------------------------------------------------------
    Charge (ESU x 10^10)
                -0.0000
    Dipole Moment (Debye)
         X      -1.4851      Y       0.0976      Z       1.2727
       Tot       1.9583
    Quadrupole Moments (Debye-Ang)
        XX     -11.0569     XY      -1.5916     YY     -18.1384
        XZ      -3.1699     YZ      -0.5891     ZZ     -19.9553

 Total job time:  10.80s(wall), 55.51s(cpu)
        *  Thank you very much for using Q-Chem.  Have a nice day.  *
