 Q-Chem 5.3 (devel), Q-Chem, Inc., Pleasanton, CA (2020)
 Q-Chem 5.3.0 for Intel X86 EM64T Linux

User input:
--------------------------------------------------------------
$rem
   JOBTYPE  sp
   EXCHANGE   omegaB97X-D
   BASIS   6-311+G(2df,2pd)
   UNRESTRICTED   False
   max_scf_cycles   250
   geom_opt_max_cycles   1500
   basis2 6-31G*
   scf_algorithm rca_diis
   SYM_IGNORE  TRUE
   print_input   true
   geom_opt_dmax   80
   pop_mulliken false
   XC_GRID 000075000302
$end

$molecule
0 1
C       -5.2752938682     0.4051986811     0.0391151299
C       -4.0488998881     1.2113888090     0.1091329627
H       -5.6660797415     -0.1189401415     -0.8426609067
H       -6.3071292803     0.7547766820     0.1690176889
H       -5.4814597314     -0.4803540829     0.6534635628
O       -2.8931101204     0.4729892252     -0.1810095758
H       -3.9805637027     1.6096894445     1.1240970192
H       -4.3060010660     2.0529273972     -0.5343067188
H       -2.6442726014     -0.2904560146     0.3334608379
$end
--------------------------------------------------------------

             Standard Nuclear Orientation (Angstroms)
    I     Atom           X                Y                Z
 ----------------------------------------------------------------
    1      C      -5.2752938682     0.4051986811     0.0391151299
    2      C      -4.0488998881     1.2113888090     0.1091329627
    3      H      -5.6660797415    -0.1189401415    -0.8426609067
    4      H      -6.3071292803     0.7547766820     0.1690176889
    5      H      -5.4814597314    -0.4803540829     0.6534635628
    6      O      -2.8931101204     0.4729892252    -0.1810095758
    7      H      -3.9805637027     1.6096894445     1.1240970192
    8      H      -4.3060010660     2.0529273972    -0.5343067188
    9      H      -2.6442726014    -0.2904560146     0.3334608379
 ----------------------------------------------------------------

    6    -154.9340712746      7.93E-05 Convergence criterion met
    6    -155.0059355257      6.78E-06 Convergence criterion met
 Total energy in the final basis set = -155.00593553

                    Orbital Energies (a.u.)
 --------------------------------------------------------------

 Alpha MOs
 -- Occupied --
-19.2455 -10.3376 -10.2678  -1.1265  -0.8610  -0.7436  -0.6137  -0.5555
 -0.5407  -0.4434  -0.4320  -0.3929  -0.3670

                    Cartesian Multipole Moments
 -----------------------------------------------------------------
    Charge (ESU x 10^10)
                 0.0000
    Dipole Moment (Debye)
         X      -1.0864      Y      -0.5077      Z       1.0980
       Tot       1.6259
    Quadrupole Moments (Debye-Ang)
        XX     -11.4038     XY      -0.0649     YY     -18.8543
        XZ      -2.2669     YZ      -0.3856     ZZ     -20.6474

 Total job time:  10.70s(wall), 55.12s(cpu)
        *  Thank you very much for using Q-Chem.  Have a nice day.  *
