 Q-Chem 5.3 (devel), Q-Chem, Inc., Pleasanton, CA (2020)
 Q-Chem 5.3.0 for Intel X86 EM64T Linux

User input:
--------------------------------------------------------------
$rem
   JOBTYPE  sp
   EXCHANGE   omegaB97X-D
   BASIS   6-311+G(2df,2pd)
   UNRESTRICTED   False
   max_scf_cycles   250
   geom_opt_max_cycles   1500
   basis2 6-31G*
   scf_algorithm rca_diis
   SYM_IGNORE  TRUE
   print_input   true
   geom_opt_dmax   80
   pop_mulliken false
   XC_GRID 000075000302
$end

$molecule
0 1
C       -5.3808591917     0.3248167067     0.0418218025
C       -4.1385485571     1.1829290697     0.1243831391
H       -5.4849789553     -0.1601206229     -0.9305545601
H       -6.2433498493     0.9398183976     0.2929804006
H       -5.3067020359     -0.5722236245     0.6632655236
O       -2.9613065170     0.4835333714     -0.2442718533
H       -4.0350704800     1.6351618732     1.1191259409
H       -4.2108831374     2.0403786771     -0.5463936836
H       -2.8411112763     -0.2570738482     0.3499532905
$end
--------------------------------------------------------------

             Standard Nuclear Orientation (Angstroms)
    I     Atom           X                Y                Z
 ----------------------------------------------------------------
    1      C      -5.3808591917     0.3248167067     0.0418218025
    2      C      -4.1385485571     1.1829290697     0.1243831391
    3      H      -5.4849789553    -0.1601206229    -0.9305545601
    4      H      -6.2433498493     0.9398183976     0.2929804006
    5      H      -5.3067020359    -0.5722236245     0.6632655236
    6      O      -2.9613065170     0.4835333714    -0.2442718533
    7      H      -4.0350704800     1.6351618732     1.1191259409
    8      H      -4.2108831374     2.0403786771    -0.5463936836
    9      H      -2.8411112763    -0.2570738482     0.3499532905
 ----------------------------------------------------------------

    7    -154.9792154285      7.76E-06 Convergence criterion met
    6    -155.0476715489      5.60E-06 Convergence criterion met
 Total energy in the final basis set = -155.04767155

                    Orbital Energies (a.u.)
 --------------------------------------------------------------

 Alpha MOs
 -- Occupied --
-19.2465 -10.3278 -10.2747  -1.1252  -0.8509  -0.7246  -0.5964  -0.5456
 -0.5198  -0.4806  -0.4527  -0.4073  -0.3632

                    Cartesian Multipole Moments
 -----------------------------------------------------------------
    Charge (ESU x 10^10)
                -0.0000
    Dipole Moment (Debye)
         X      -1.1516      Y      -0.4263      Z       1.2328
       Tot       1.7400
    Quadrupole Moments (Debye-Ang)
        XX     -12.3693     XY      -0.5562     YY     -18.5176
        XZ      -3.2298     YZ      -0.1113     ZZ     -20.2858

 Total job time:  11.15s(wall), 57.31s(cpu)
        *  Thank you very much for using Q-Chem.  Have a nice day.  *
