 Q-Chem 5.3 (devel), Q-Chem, Inc., Pleasanton, CA (2020)
 Q-Chem 5.3.0 for Intel X86 EM64T Linux

User input:
--------------------------------------------------------------
$rem
   JOBTYPE  sp
   EXCHANGE   omegaB97X-D
   BASIS   6-311+G(2df,2pd)
   UNRESTRICTED   False
   max_scf_cycles   250
   geom_opt_max_cycles   1500
   basis2 6-31G*
   scf_algorithm rca_diis
   SYM_IGNORE  TRUE
   print_input   true
   geom_opt_dmax   80
   pop_mulliken false
   XC_GRID 000075000302
$end

$molecule
0 1
C       -5.3658602389     0.2943609004     0.0298104251
C       -4.1273936938     1.1762512796     0.1207558233
H       -5.4978364097     -0.0170587944     -1.0044423472
H       -6.2852163849     0.8308416642     0.2800844018
H       -5.3222037651     -0.4809356920     0.7958351368
O       -2.9437325485     0.4977043091     -0.2434885082
H       -4.0354169778     1.5679848470     1.1386961865
H       -4.2069672651     1.9912348967     -0.5962799204
H       -2.8181827161     -0.2431634105     0.3493388025
$end
--------------------------------------------------------------

             Standard Nuclear Orientation (Angstroms)
    I     Atom           X                Y                Z
 ----------------------------------------------------------------
    1      C      -5.3658602389     0.2943609004     0.0298104251
    2      C      -4.1273936938     1.1762512796     0.1207558233
    3      H      -5.4978364097    -0.0170587944    -1.0044423472
    4      H      -6.2852163849     0.8308416642     0.2800844018
    5      H      -5.3222037651    -0.4809356920     0.7958351368
    6      O      -2.9437325485     0.4977043091    -0.2434885082
    7      H      -4.0354169778     1.5679848470     1.1386961865
    8      H      -4.2069672651     1.9912348967    -0.5962799204
    9      H      -2.8181827161    -0.2431634105     0.3493388025
 ----------------------------------------------------------------

    7    -154.9793510568      7.54E-06 Convergence criterion met
    6    -155.0477464972      5.81E-06 Convergence criterion met
 Total energy in the final basis set = -155.04774650

                    Orbital Energies (a.u.)
 --------------------------------------------------------------

 Alpha MOs
 -- Occupied --
-19.2459 -10.3269 -10.2744  -1.1270  -0.8494  -0.7223  -0.5976  -0.5456
 -0.5266  -0.4739  -0.4467  -0.4152  -0.3618

                    Cartesian Multipole Moments
 -----------------------------------------------------------------
    Charge (ESU x 10^10)
                 0.0000
    Dipole Moment (Debye)
         X      -1.2071      Y      -0.4051      Z       1.2530
       Tot       1.7864
    Quadrupole Moments (Debye-Ang)
        XX     -11.7267     XY      -0.7148     YY     -19.3708
        XZ      -3.2949     YZ      -0.4796     ZZ     -19.6197

 Total job time:  11.08s(wall), 57.14s(cpu)
        *  Thank you very much for using Q-Chem.  Have a nice day.  *
