 Q-Chem 5.3 (devel), Q-Chem, Inc., Pleasanton, CA (2020)
 Q-Chem 5.3.0 for Intel X86 EM64T Linux

User input:
--------------------------------------------------------------
$rem
   JOBTYPE  sp
   EXCHANGE   omegaB97X-D
   BASIS   6-311+G(2df,2pd)
   UNRESTRICTED   False
   max_scf_cycles   250
   geom_opt_max_cycles   1500
   basis2 6-31G*
   scf_algorithm rca_diis
   SYM_IGNORE  TRUE
   print_input   true
   geom_opt_dmax   80
   pop_mulliken false
   XC_GRID 000075000302
$end

$molecule
0 1
C       -5.4265480828     0.4492019933     0.0352176567
C       -4.2295005239     1.1204146725     0.1745460436
H       -5.4122082798     -0.0307534099     -0.9413757116
H       -6.4008642758     0.8407198665     0.3069111865
H       -5.1359931134     -0.3569798631     0.7149510574
O       -3.0239329636     0.4383613124     -0.1952030623
H       -4.2075010661     1.6130412312     1.1501781749
H       -4.1148179863     1.8803366054     -0.5962434101
H       -2.6514437081     -0.3371224083     0.2213280650
$end
--------------------------------------------------------------

             Standard Nuclear Orientation (Angstroms)
    I     Atom           X                Y                Z
 ----------------------------------------------------------------
    1      C      -5.4265480828     0.4492019933     0.0352176567
    2      C      -4.2295005239     1.1204146725     0.1745460436
    3      H      -5.4122082798    -0.0307534099    -0.9413757116
    4      H      -6.4008642758     0.8407198665     0.3069111865
    5      H      -5.1359931134    -0.3569798631     0.7149510574
    6      O      -3.0239329636     0.4383613124    -0.1952030623
    7      H      -4.2075010661     1.6130412312     1.1501781749
    8      H      -4.1148179863     1.8803366054    -0.5962434101
    9      H      -2.6514437081    -0.3371224083     0.2213280650
 ----------------------------------------------------------------

    7    -154.9374208828      1.54E-05 Convergence criterion met
    6    -155.0088801444      6.34E-06 Convergence criterion met
 Total energy in the final basis set = -155.00888014

                    Orbital Energies (a.u.)
 --------------------------------------------------------------

 Alpha MOs
 -- Occupied --
-19.2419 -10.3207 -10.2643  -1.1148  -0.8878  -0.7229  -0.6074  -0.5621
 -0.5404  -0.4600  -0.4352  -0.3862  -0.3701

                    Cartesian Multipole Moments
 -----------------------------------------------------------------
    Charge (ESU x 10^10)
                 0.0000
    Dipole Moment (Debye)
         X      -0.9760      Y      -0.5842      Z       1.1148
       Tot       1.5926
    Quadrupole Moments (Debye-Ang)
        XX     -11.9158     XY      -0.6901     YY     -19.6359
        XZ      -3.3200     YZ       0.1098     ZZ     -20.0959

 Total job time:  11.30s(wall), 58.19s(cpu)
        *  Thank you very much for using Q-Chem.  Have a nice day.  *
