 Q-Chem 5.3 (devel), Q-Chem, Inc., Pleasanton, CA (2020)
 Q-Chem 5.3.0 for Intel X86 EM64T Linux

User input:
--------------------------------------------------------------
$rem
   JOBTYPE  sp
   EXCHANGE   omegaB97X-D
   BASIS   6-311+G(2df,2pd)
   UNRESTRICTED   False
   max_scf_cycles   250
   geom_opt_max_cycles   1500
   basis2 6-31G*
   scf_algorithm rca_diis
   SYM_IGNORE  TRUE
   print_input   true
   geom_opt_dmax   80
   pop_mulliken false
   XC_GRID 000075000302
$end

$molecule
0 1
C       -5.3914584488     0.3115616125     0.0384697811
C       -4.1128391426     1.1761213083     0.1160747553
H       -5.4639559894     -0.0860299819     -0.9738502792
H       -6.2511305529     0.9364298851     0.2825596918
H       -5.2881150889     -0.5199962835     0.7380929706
O       -2.9510542750     0.4714751180     -0.2352584080
H       -4.0731001640     1.5928399752     1.1295395686
H       -4.2717232194     2.0117257314     -0.5657775872
H       -2.7994331189     -0.2769073650     0.3404595072
$end
--------------------------------------------------------------

             Standard Nuclear Orientation (Angstroms)
    I     Atom           X                Y                Z
 ----------------------------------------------------------------
    1      C      -5.3914584488     0.3115616125     0.0384697811
    2      C      -4.1128391426     1.1761213083     0.1160747553
    3      H      -5.4639559894    -0.0860299819    -0.9738502792
    4      H      -6.2511305529     0.9364298851     0.2825596918
    5      H      -5.2881150889    -0.5199962835     0.7380929706
    6      O      -2.9510542750     0.4714751180    -0.2352584080
    7      H      -4.0731001640     1.5928399752     1.1295395686
    8      H      -4.2717232194     2.0117257314    -0.5657775872
    9      H      -2.7994331189    -0.2769073650     0.3404595072
 ----------------------------------------------------------------

    6    -154.9799106809      9.96E-05 Convergence criterion met
    6    -155.0482830120      5.42E-06 Convergence criterion met
 Total energy in the final basis set = -155.04828301

                    Orbital Energies (a.u.)
 --------------------------------------------------------------

 Alpha MOs
 -- Occupied --
-19.2491 -10.3282 -10.2735  -1.1294  -0.8474  -0.7217  -0.5998  -0.5502
 -0.5191  -0.4666  -0.4621  -0.4079  -0.3608

                    Cartesian Multipole Moments
 -----------------------------------------------------------------
    Charge (ESU x 10^10)
                 0.0000
    Dipole Moment (Debye)
         X      -1.0356      Y      -0.4185      Z       1.2078
       Tot       1.6451
    Quadrupole Moments (Debye-Ang)
        XX     -13.2948     XY      -0.9560     YY     -18.9171
        XZ      -3.1277     YZ      -0.3358     ZZ     -19.9902

 Total job time:  10.86s(wall), 55.82s(cpu)
        *  Thank you very much for using Q-Chem.  Have a nice day.  *
