 Q-Chem 5.3 (devel), Q-Chem, Inc., Pleasanton, CA (2020)
 Q-Chem 5.3.0 for Intel X86 EM64T Linux

User input:
--------------------------------------------------------------
$rem
   JOBTYPE  sp
   EXCHANGE   omegaB97X-D
   BASIS   6-311+G(2df,2pd)
   UNRESTRICTED   False
   max_scf_cycles   250
   geom_opt_max_cycles   1500
   basis2 6-31G*
   scf_algorithm rca_diis
   SYM_IGNORE  TRUE
   print_input   true
   geom_opt_dmax   80
   pop_mulliken false
   XC_GRID 000075000302
$end

$molecule
0 1
C       -5.4399052143     0.3352947823     0.0535821920
C       -4.1197851399     1.2269830889     0.1313995516
H       -5.4623896584     -0.0817121675     -0.9545399463
H       -6.4116548377     0.7768093305     0.2738310636
H       -5.2941919763     -0.5194660787     0.7195966827
O       -2.9258662602     0.4586704902     -0.2586690439
H       -3.9603271205     1.6424071452     1.1299568827
H       -4.1474396651     2.0549629912     -0.5747184471
H       -2.8412501274     -0.2767295819     0.3498710648
$end
--------------------------------------------------------------

             Standard Nuclear Orientation (Angstroms)
    I     Atom           X                Y                Z
 ----------------------------------------------------------------
    1      C      -5.4399052143     0.3352947823     0.0535821920
    2      C      -4.1197851399     1.2269830889     0.1313995516
    3      H      -5.4623896584    -0.0817121675    -0.9545399463
    4      H      -6.4116548377     0.7768093305     0.2738310636
    5      H      -5.2941919763    -0.5194660787     0.7195966827
    6      O      -2.9258662602     0.4586704902    -0.2586690439
    7      H      -3.9603271205     1.6424071452     1.1299568827
    8      H      -4.1474396651     2.0549629912    -0.5747184471
    9      H      -2.8412501274    -0.2767295819     0.3498710648
 ----------------------------------------------------------------

    7    -154.9756500479      8.69E-06 Convergence criterion met
    6    -155.0435865121      5.65E-06 Convergence criterion met
 Total energy in the final basis set = -155.04358651

                    Orbital Energies (a.u.)
 --------------------------------------------------------------

 Alpha MOs
 -- Occupied --
-19.2484 -10.3384 -10.2823  -1.1107  -0.8382  -0.7268  -0.5858  -0.5344
 -0.5203  -0.4616  -0.4580  -0.4190  -0.3653

                    Cartesian Multipole Moments
 -----------------------------------------------------------------
    Charge (ESU x 10^10)
                 0.0000
    Dipole Moment (Debye)
         X      -1.2925      Y      -0.3077      Z       1.2922
       Tot       1.8534
    Quadrupole Moments (Debye-Ang)
        XX     -11.0637     XY      -0.9084     YY     -18.7392
        XZ      -3.4493     YZ      -0.2943     ZZ     -20.0629

 Total job time:  10.90s(wall), 56.32s(cpu)
        *  Thank you very much for using Q-Chem.  Have a nice day.  *
