 Q-Chem 5.3 (devel), Q-Chem, Inc., Pleasanton, CA (2020)
 Q-Chem 5.3.0 for Intel X86 EM64T Linux

User input:
--------------------------------------------------------------
$rem
   JOBTYPE  sp
   EXCHANGE   omegaB97X-D
   BASIS   6-311+G(2df,2pd)
   UNRESTRICTED   False
   max_scf_cycles   250
   geom_opt_max_cycles   1500
   basis2 6-31G*
   scf_algorithm rca_diis
   SYM_IGNORE  TRUE
   print_input   true
   geom_opt_dmax   80
   pop_mulliken false
   XC_GRID 000075000302
$end

$molecule
0 1
C       -5.3725725710     0.2928920489     0.1013983989
C       -4.1331669678     1.1680945247     0.1623523411
H       -5.7084861740     -0.0271784604     -0.8903396857
H       -6.2682608508     0.9127776586     0.0470473407
H       -5.0891539751     -0.5612518334     0.7069700002
O       -2.9565538607     0.4896836120     -0.2422598678
H       -4.0138103875     1.5956848226     1.1650694633
H       -4.2057634410     1.9811907303     -0.5567851431
H       -2.8550417720     -0.2346731033     0.3768571527
$end
--------------------------------------------------------------

             Standard Nuclear Orientation (Angstroms)
    I     Atom           X                Y                Z
 ----------------------------------------------------------------
    1      C      -5.3725725710     0.2928920489     0.1013983989
    2      C      -4.1331669678     1.1680945247     0.1623523411
    3      H      -5.7084861740    -0.0271784604    -0.8903396857
    4      H      -6.2682608508     0.9127776586     0.0470473407
    5      H      -5.0891539751    -0.5612518334     0.7069700002
    6      O      -2.9565538607     0.4896836120    -0.2422598678
    7      H      -4.0138103875     1.5956848226     1.1650694633
    8      H      -4.2057634410     1.9811907303    -0.5567851431
    9      H      -2.8550417720    -0.2346731033     0.3768571527
 ----------------------------------------------------------------

    7    -154.9501835761      9.58E-06 Convergence criterion met
    6    -155.0202373731      5.71E-06 Convergence criterion met
 Total energy in the final basis set = -155.02023737

                    Orbital Energies (a.u.)
 --------------------------------------------------------------

 Alpha MOs
 -- Occupied --
-19.2471 -10.3267 -10.2765  -1.1279  -0.8534  -0.7250  -0.6033  -0.5658
 -0.5125  -0.4793  -0.4467  -0.3947  -0.3635

                    Cartesian Multipole Moments
 -----------------------------------------------------------------
    Charge (ESU x 10^10)
                 0.0000
    Dipole Moment (Debye)
         X      -1.2458      Y      -0.3499      Z       1.0694
       Tot       1.6787
    Quadrupole Moments (Debye-Ang)
        XX     -11.2399     XY      -1.0628     YY     -19.0574
        XZ      -1.4183     YZ      -0.6795     ZZ     -20.2319

 Total job time:  11.13s(wall), 57.40s(cpu)
        *  Thank you very much for using Q-Chem.  Have a nice day.  *
