 Q-Chem 5.3 (devel), Q-Chem, Inc., Pleasanton, CA (2020)
 Q-Chem 5.3.0 for Intel X86 EM64T Linux

User input:
--------------------------------------------------------------
$rem
   JOBTYPE  sp
   EXCHANGE   omegaB97X-D
   BASIS   6-311+G(2df,2pd)
   UNRESTRICTED   False
   max_scf_cycles   250
   geom_opt_max_cycles   1500
   basis2 6-31G*
   scf_algorithm rca_diis
   SYM_IGNORE  TRUE
   print_input   true
   geom_opt_dmax   80
   pop_mulliken false
   XC_GRID 000075000302
$end

$molecule
0 1
C       -5.3756711064     0.2832106051     0.1288107034
C       -4.1351923142     1.1504718576     0.2021222605
H       -5.3523875743     0.1116560933     -0.9498928377
H       -6.2583534877     0.9036415191     0.2903568092
H       -5.4975577419     -0.6711578914     0.6388240650
O       -2.9883675921     0.4671863255     -0.2625111033
H       -3.9470252260     1.7516704420     1.0956285621
H       -4.3283641874     1.8324800404     -0.6288189451
H       -2.7198907698     -0.2119389917     0.3557904859
$end
--------------------------------------------------------------

             Standard Nuclear Orientation (Angstroms)
    I     Atom           X                Y                Z
 ----------------------------------------------------------------
    1      C      -5.3756711064     0.2832106051     0.1288107034
    2      C      -4.1351923142     1.1504718576     0.2021222605
    3      H      -5.3523875743     0.1116560933    -0.9498928377
    4      H      -6.2583534877     0.9036415191     0.2903568092
    5      H      -5.4975577419    -0.6711578914     0.6388240650
    6      O      -2.9883675921     0.4671863255    -0.2625111033
    7      H      -3.9470252260     1.7516704420     1.0956285621
    8      H      -4.3283641874     1.8324800404    -0.6288189451
    9      H      -2.7198907698    -0.2119389917     0.3557904859
 ----------------------------------------------------------------

    7    -154.9684016128      7.43E-06 Convergence criterion met
    6    -155.0371002052      5.71E-06 Convergence criterion met
 Total energy in the final basis set = -155.03710021

                    Orbital Energies (a.u.)
 --------------------------------------------------------------

 Alpha MOs
 -- Occupied --
-19.2460 -10.3283 -10.2725  -1.1261  -0.8543  -0.7210  -0.5976  -0.5489
 -0.5271  -0.4603  -0.4527  -0.4050  -0.3656

                    Cartesian Multipole Moments
 -----------------------------------------------------------------
    Charge (ESU x 10^10)
                -0.0000
    Dipole Moment (Debye)
         X      -0.8904      Y      -0.3262      Z       1.2826
       Tot       1.5951
    Quadrupole Moments (Debye-Ang)
        XX     -13.7178     XY      -0.8476     YY     -19.0148
        XZ      -3.1931     YZ      -0.2739     ZZ     -20.0633

 Total job time:  11.09s(wall), 57.35s(cpu)
        *  Thank you very much for using Q-Chem.  Have a nice day.  *
