 Q-Chem 5.3 (devel), Q-Chem, Inc., Pleasanton, CA (2020)
 Q-Chem 5.3.0 for Intel X86 EM64T Linux

User input:
--------------------------------------------------------------
$rem
   JOBTYPE  sp
   EXCHANGE   omegaB97X-D
   BASIS   6-311+G(2df,2pd)
   UNRESTRICTED   False
   max_scf_cycles   250
   geom_opt_max_cycles   1500
   basis2 6-31G*
   scf_algorithm rca_diis
   SYM_IGNORE  TRUE
   print_input   true
   geom_opt_dmax   80
   pop_mulliken false
   XC_GRID 000075000302
$end

$molecule
0 1
C       -5.3814423084     0.3399982246     -0.0250467603
C       -4.1340644137     1.1959253344     0.0838917106
H       -5.2794570928     -0.1470156580     -0.9890144992
H       -6.2140003346     0.8016035350     0.5089467808
H       -5.5576668420     -0.4609330391     0.7078356498
O       -2.9567674259     0.4877164642     -0.2464797629
H       -4.0533771662     1.6130135912     1.0937702995
H       -4.2101960876     2.0549316460     -0.5853056512
H       -2.8158383287     -0.2680200982     0.3217122331
$end
--------------------------------------------------------------

             Standard Nuclear Orientation (Angstroms)
    I     Atom           X                Y                Z
 ----------------------------------------------------------------
    1      C      -5.3814423084     0.3399982246    -0.0250467603
    2      C      -4.1340644137     1.1959253344     0.0838917106
    3      H      -5.2794570928    -0.1470156580    -0.9890144992
    4      H      -6.2140003346     0.8016035350     0.5089467808
    5      H      -5.5576668420    -0.4609330391     0.7078356498
    6      O      -2.9567674259     0.4877164642    -0.2464797629
    7      H      -4.0533771662     1.6130135912     1.0937702995
    8      H      -4.2101960876     2.0549316460    -0.5853056512
    9      H      -2.8158383287    -0.2680200982     0.3217122331
 ----------------------------------------------------------------

    6    -154.9497303866      9.71E-05 Convergence criterion met
    6    -155.0199480547      6.49E-06 Convergence criterion met
 Total energy in the final basis set = -155.01994805

                    Orbital Energies (a.u.)
 --------------------------------------------------------------

 Alpha MOs
 -- Occupied --
-19.2452 -10.3290 -10.2747  -1.1249  -0.8534  -0.7296  -0.5991  -0.5594
 -0.5323  -0.4766  -0.4156  -0.4142  -0.3569

                    Cartesian Multipole Moments
 -----------------------------------------------------------------
    Charge (ESU x 10^10)
                 0.0000
    Dipole Moment (Debye)
         X      -1.1252      Y      -0.5270      Z       1.4062
       Tot       1.8765
    Quadrupole Moments (Debye-Ang)
        XX     -12.6595     XY       0.2106     YY     -19.1349
        XZ      -5.0421     YZ       0.0336     ZZ     -19.8250

 Total job time:  10.96s(wall), 56.27s(cpu)
        *  Thank you very much for using Q-Chem.  Have a nice day.  *
