 Q-Chem 5.3 (devel), Q-Chem, Inc., Pleasanton, CA (2020)
 Q-Chem 5.3.0 for Intel X86 EM64T Linux

User input:
--------------------------------------------------------------
$rem
   JOBTYPE  sp
   EXCHANGE   omegaB97X-D
   BASIS   6-311+G(2df,2pd)
   UNRESTRICTED   False
   max_scf_cycles   250
   geom_opt_max_cycles   1500
   basis2 6-31G*
   scf_algorithm rca_diis
   SYM_IGNORE  TRUE
   print_input   true
   geom_opt_dmax   80
   pop_mulliken false
   XC_GRID 000075000302
$end

$molecule
0 1
C       -5.3727763278     0.3031122760     0.0575937376
C       -4.1329525958     1.1753257277     0.1357234448
H       -5.5626293911     -0.0689486421     -0.9508677656
H       -6.2716610573     0.9025067742     0.2087203494
H       -5.2358041577     -0.5438734730     0.7294768899
O       -2.9532244232     0.4904884873     -0.2433903635
H       -4.0283163559     1.5994057786     1.1412069789
H       -4.2082470952     2.0041323293     -0.5668537109
H       -2.8371985960     -0.2449292580     0.3587004396
$end
--------------------------------------------------------------

             Standard Nuclear Orientation (Angstroms)
    I     Atom           X                Y                Z
 ----------------------------------------------------------------
    1      C      -5.3727763278     0.3031122760     0.0575937376
    2      C      -4.1329525958     1.1753257277     0.1357234448
    3      H      -5.5626293911    -0.0689486421    -0.9508677656
    4      H      -6.2716610573     0.9025067742     0.2087203494
    5      H      -5.2358041577    -0.5438734730     0.7294768899
    6      O      -2.9532244232     0.4904884873    -0.2433903635
    7      H      -4.0283163559     1.5994057786     1.1412069789
    8      H      -4.2082470952     2.0041323293    -0.5668537109
    9      H      -2.8371985960    -0.2449292580     0.3587004396
 ----------------------------------------------------------------

    7    -154.9791445858      7.73E-06 Convergence criterion met
    6    -155.0475463356      5.58E-06 Convergence criterion met
 Total energy in the final basis set = -155.04754634

                    Orbital Energies (a.u.)
 --------------------------------------------------------------

 Alpha MOs
 -- Occupied --
-19.2465 -10.3269 -10.2748  -1.1266  -0.8501  -0.7227  -0.5967  -0.5513
 -0.5172  -0.4701  -0.4611  -0.4089  -0.3633

                    Cartesian Multipole Moments
 -----------------------------------------------------------------
    Charge (ESU x 10^10)
                 0.0000
    Dipole Moment (Debye)
         X      -1.1958      Y      -0.3917      Z       1.1985
       Tot       1.7378
    Quadrupole Moments (Debye-Ang)
        XX     -11.8425     XY      -0.8114     YY     -18.9496
        XZ      -2.7199     YZ      -0.4227     ZZ     -20.0125

 Total job time:  11.11s(wall), 57.48s(cpu)
        *  Thank you very much for using Q-Chem.  Have a nice day.  *
