 Q-Chem 5.3 (devel), Q-Chem, Inc., Pleasanton, CA (2020)
 Q-Chem 5.3.0 for Intel X86 EM64T Linux

User input:
--------------------------------------------------------------
$rem
   JOBTYPE  sp
   EXCHANGE   omegaB97X-D
   BASIS   6-311+G(2df,2pd)
   UNRESTRICTED   False
   max_scf_cycles   250
   geom_opt_max_cycles   1500
   basis2 6-31G*
   scf_algorithm rca_diis
   SYM_IGNORE  TRUE
   print_input   true
   geom_opt_dmax   80
   pop_mulliken false
   XC_GRID 000075000302
$end

$molecule
0 1
C       -5.3596139694     0.3204307969     0.0402310736
C       -4.1393544078     1.2058861697     0.1321398632
H       -5.4329637631     -0.0809314000     -0.9703070906
H       -6.2856412909     0.8430128882     0.2815272367
H       -5.2584641712     -0.5217090758     0.7290651915
O       -3.0083162220     0.4545540707     -0.2579242722
H       -4.0060213214     1.6340076704     1.1321491332
H       -4.2065244440     2.0376027133     -0.5687364003
H       -2.9059104102     -0.2756338333     0.3521652651
$end
--------------------------------------------------------------

             Standard Nuclear Orientation (Angstroms)
    I     Atom           X                Y                Z
 ----------------------------------------------------------------
    1      C      -5.3596139694     0.3204307969     0.0402310736
    2      C      -4.1393544078     1.2058861697     0.1321398632
    3      H      -5.4329637631    -0.0809314000    -0.9703070906
    4      H      -6.2856412909     0.8430128882     0.2815272367
    5      H      -5.2584641712    -0.5217090758     0.7290651915
    6      O      -3.0083162220     0.4545540707    -0.2579242722
    7      H      -4.0060213214     1.6340076704     1.1321491332
    8      H      -4.2065244440     2.0376027133    -0.5687364003
    9      H      -2.9059104102    -0.2756338333     0.3521652651
 ----------------------------------------------------------------

    6    -154.9817198150      9.72E-05 Convergence criterion met
    6    -155.0499341901      5.71E-06 Convergence criterion met
 Total energy in the final basis set = -155.04993419

                    Orbital Energies (a.u.)
 --------------------------------------------------------------

 Alpha MOs
 -- Occupied --
-19.2450 -10.3267 -10.2730  -1.1277  -0.8489  -0.7233  -0.5975  -0.5461
 -0.5248  -0.4684  -0.4575  -0.4118  -0.3626

                    Cartesian Multipole Moments
 -----------------------------------------------------------------
    Charge (ESU x 10^10)
                 0.0000
    Dipole Moment (Debye)
         X      -1.1355      Y      -0.3298      Z       1.2711
       Tot       1.7361
    Quadrupole Moments (Debye-Ang)
        XX     -12.4748     XY      -0.7827     YY     -18.7513
        XZ      -3.3833     YZ      -0.3040     ZZ     -19.9173

 Total job time:  10.99s(wall), 56.39s(cpu)
        *  Thank you very much for using Q-Chem.  Have a nice day.  *
