 Q-Chem 5.3 (devel), Q-Chem, Inc., Pleasanton, CA (2020)
 Q-Chem 5.3.0 for Intel X86 EM64T Linux

User input:
--------------------------------------------------------------
$rem
   JOBTYPE  sp
   EXCHANGE   omegaB97X-D
   BASIS   6-311+G(2df,2pd)
   UNRESTRICTED   False
   max_scf_cycles   250
   geom_opt_max_cycles   1500
   basis2 6-31G*
   scf_algorithm rca_diis
   SYM_IGNORE  TRUE
   print_input   true
   geom_opt_dmax   80
   pop_mulliken false
   XC_GRID 000075000302
$end

$molecule
0 1
C       -5.3867092820     0.3374410474     0.0472559692
C       -4.1441178114     1.1857864576     0.1261835493
H       -5.4807741952     -0.2291000737     -0.8830309332
H       -6.2192734879     0.9887428190     0.2975052151
H       -5.3032892877     -0.6108118407     0.5890414592
O       -2.9693686248     0.4772724291     -0.2444393735
H       -4.0351843682     1.6676512302     1.1080140498
H       -4.2129351189     2.0633240856     -0.5206953477
H       -2.8511578239     -0.2630861545     0.3504754119
$end
--------------------------------------------------------------

             Standard Nuclear Orientation (Angstroms)
    I     Atom           X                Y                Z
 ----------------------------------------------------------------
    1      C      -5.3867092820     0.3374410474     0.0472559692
    2      C      -4.1441178114     1.1857864576     0.1261835493
    3      H      -5.4807741952    -0.2291000737    -0.8830309332
    4      H      -6.2192734879     0.9887428190     0.2975052151
    5      H      -5.3032892877    -0.6108118407     0.5890414592
    6      O      -2.9693686248     0.4772724291    -0.2444393735
    7      H      -4.0351843682     1.6676512302     1.1080140498
    8      H      -4.2129351189     2.0633240856    -0.5206953477
    9      H      -2.8511578239    -0.2630861545     0.3504754119
 ----------------------------------------------------------------

    7    -154.9685689738      8.49E-06 Convergence criterion met
    6    -155.0376650017      5.61E-06 Convergence criterion met
 Total energy in the final basis set = -155.03766500

                    Orbital Energies (a.u.)
 --------------------------------------------------------------

 Alpha MOs
 -- Occupied --
-19.2469 -10.3285 -10.2753  -1.1244  -0.8528  -0.7274  -0.5984  -0.5465
 -0.5169  -0.4934  -0.4433  -0.4003  -0.3634

                    Cartesian Multipole Moments
 -----------------------------------------------------------------
    Charge (ESU x 10^10)
                 0.0000
    Dipole Moment (Debye)
         X      -1.1313      Y      -0.4456      Z       1.2197
       Tot       1.7222
    Quadrupole Moments (Debye-Ang)
        XX     -12.6270     XY      -0.4175     YY     -18.0945
        XZ      -3.1857     YZ       0.0875     ZZ     -20.6748

 Total job time:  11.11s(wall), 57.36s(cpu)
        *  Thank you very much for using Q-Chem.  Have a nice day.  *
