 Q-Chem 5.3 (devel), Q-Chem, Inc., Pleasanton, CA (2020)
 Q-Chem 5.3.0 for Intel X86 EM64T Linux

User input:
--------------------------------------------------------------
$rem
   JOBTYPE  sp
   EXCHANGE   omegaB97X-D
   BASIS   6-311+G(2df,2pd)
   UNRESTRICTED   False
   max_scf_cycles   250
   geom_opt_max_cycles   1500
   basis2 6-31G*
   scf_algorithm rca_diis
   SYM_IGNORE  TRUE
   print_input   true
   geom_opt_dmax   80
   pop_mulliken false
   XC_GRID 000075000302
$end

$molecule
0 1
C       -5.3760274787     0.2936810019     0.0989277348
C       -4.1337487661     1.1594154844     0.1752436751
H       -5.4007308823     0.0452289496     -0.9637614655
H       -6.2634698012     0.8985734075     0.2907601001
H       -5.4377248960     -0.6304507465     0.6737231381
O       -2.9745282014     0.4749206715     -0.2573878607
H       -3.9740144878     1.7042846439     1.1105915053
H       -4.2882159061     1.8970718111     -0.6141364796
H       -2.7543495802     -0.2255052234     0.3563496525
$end
--------------------------------------------------------------

             Standard Nuclear Orientation (Angstroms)
    I     Atom           X                Y                Z
 ----------------------------------------------------------------
    1      C      -5.3760274787     0.2936810019     0.0989277348
    2      C      -4.1337487661     1.1594154844     0.1752436751
    3      H      -5.4007308823     0.0452289496    -0.9637614655
    4      H      -6.2634698012     0.8985734075     0.2907601001
    5      H      -5.4377248960    -0.6304507465     0.6737231381
    6      O      -2.9745282014     0.4749206715    -0.2573878607
    7      H      -3.9740144878     1.7042846439     1.1105915053
    8      H      -4.2882159061     1.8970718111    -0.6141364796
    9      H      -2.7543495802    -0.2255052234     0.3563496525
 ----------------------------------------------------------------

    7    -154.9765019045      7.41E-06 Convergence criterion met
    6    -155.0449186076      5.65E-06 Convergence criterion met
 Total energy in the final basis set = -155.04491861

                    Orbital Energies (a.u.)
 --------------------------------------------------------------

 Alpha MOs
 -- Occupied --
-19.2461 -10.3275 -10.2729  -1.1259  -0.8517  -0.7217  -0.5968  -0.5463
 -0.5266  -0.4617  -0.4569  -0.4081  -0.3647

                    Cartesian Multipole Moments
 -----------------------------------------------------------------
    Charge (ESU x 10^10)
                -0.0000
    Dipole Moment (Debye)
         X      -0.9883      Y      -0.3599      Z       1.2780
       Tot       1.6551
    Quadrupole Moments (Debye-Ang)
        XX     -13.1611     XY      -0.7917     YY     -19.0003
        XZ      -3.2468     YZ      -0.2985     ZZ     -19.9905

 Total job time:  11.16s(wall), 57.50s(cpu)
        *  Thank you very much for using Q-Chem.  Have a nice day.  *
