 Q-Chem 5.3 (devel), Q-Chem, Inc., Pleasanton, CA (2020)
 Q-Chem 5.3.0 for Intel X86 EM64T Linux

User input:
--------------------------------------------------------------
$rem
   JOBTYPE  sp
   EXCHANGE   omegaB97X-D
   BASIS   6-311+G(2df,2pd)
   UNRESTRICTED   False
   max_scf_cycles   250
   geom_opt_max_cycles   1500
   basis2 6-31G*
   scf_algorithm rca_diis
   SYM_IGNORE  TRUE
   print_input   true
   geom_opt_dmax   80
   pop_mulliken false
   XC_GRID 000075000302
$end

$molecule
0 1
C       -5.4434287524     0.2589623807     0.0133045230
C       -4.0954017513     1.0284210884     0.0722552897
H       -5.7725361153     -0.0943528510     -0.9641116515
H       -6.1124144180     1.0737969393     0.3080221175
H       -5.5759251022     -0.5405527266     0.7427338905
O       -2.7339749414     0.6734891952     -0.1654560240
H       -4.1656895294     1.4189574482     1.0948331708
H       -4.2241606646     1.8895977953     -0.5831218628
H       -2.4792787253     -0.0910992696     0.3518505469
$end
--------------------------------------------------------------

             Standard Nuclear Orientation (Angstroms)
    I     Atom           X                Y                Z
 ----------------------------------------------------------------
    1      C      -5.4434287524     0.2589623807     0.0133045230
    2      C      -4.0954017513     1.0284210884     0.0722552897
    3      H      -5.7725361153    -0.0943528510    -0.9641116515
    4      H      -6.1124144180     1.0737969393     0.3080221175
    5      H      -5.5759251022    -0.5405527266     0.7427338905
    6      O      -2.7339749414     0.6734891952    -0.1654560240
    7      H      -4.1656895294     1.4189574482     1.0948331708
    8      H      -4.2241606646     1.8895977953    -0.5831218628
    9      H      -2.4792787253    -0.0910992696     0.3518505469
 ----------------------------------------------------------------

    7    -154.9626293403      7.77E-06 Convergence criterion met
    6    -155.0309493468      5.60E-06 Convergence criterion met
 Total energy in the final basis set = -155.03094935

                    Orbital Energies (a.u.)
 --------------------------------------------------------------

 Alpha MOs
 -- Occupied --
-19.2518 -10.3312 -10.2831  -1.1221  -0.8548  -0.7229  -0.5947  -0.5436
 -0.5139  -0.4719  -0.4562  -0.4134  -0.3585

                    Cartesian Multipole Moments
 -----------------------------------------------------------------
    Charge (ESU x 10^10)
                 0.0000
    Dipole Moment (Debye)
         X      -1.2012      Y      -0.8029      Z       1.0785
       Tot       1.8030
    Quadrupole Moments (Debye-Ang)
        XX     -11.2643     XY       0.1718     YY     -20.0228
        XZ      -2.5999     YZ      -0.2741     ZZ     -20.0432

 Total job time:  10.81s(wall), 55.84s(cpu)
        *  Thank you very much for using Q-Chem.  Have a nice day.  *
