 Q-Chem 5.3 (devel), Q-Chem, Inc., Pleasanton, CA (2020)
 Q-Chem 5.3.0 for Intel X86 EM64T Linux

User input:
--------------------------------------------------------------
$rem
   JOBTYPE  sp
   EXCHANGE   omegaB97X-D
   BASIS   6-311+G(2df,2pd)
   UNRESTRICTED   False
   max_scf_cycles   250
   geom_opt_max_cycles   1500
   basis2 6-31G*
   scf_algorithm rca_diis
   SYM_IGNORE  TRUE
   print_input   true
   geom_opt_dmax   80
   pop_mulliken false
   XC_GRID 000075000302
$end

$molecule
0 1
C       -5.3438916138     0.3398214910     0.0601215568
C       -4.0706651080     1.1646524310     0.1283812118
H       -5.4852847285     -0.0806604378     -0.9365065749
H       -6.2577272776     0.8669105970     0.3375665088
H       -5.3134953507     -0.5486176501     0.7013676357
O       -2.9211960295     0.4955124257     -0.3050922684
H       -4.1678324591     1.6113248250     1.1285887572
H       -4.1283142016     1.9816165343     -0.5865311619
H       -2.9144032311     -0.2133402162     0.3424143350
$end
--------------------------------------------------------------

             Standard Nuclear Orientation (Angstroms)
    I     Atom           X                Y                Z
 ----------------------------------------------------------------
    1      C      -5.3438916138     0.3398214910     0.0601215568
    2      C      -4.0706651080     1.1646524310     0.1283812118
    3      H      -5.4852847285    -0.0806604378    -0.9365065749
    4      H      -6.2577272776     0.8669105970     0.3375665088
    5      H      -5.3134953507    -0.5486176501     0.7013676357
    6      O      -2.9211960295     0.4955124257    -0.3050922684
    7      H      -4.1678324591     1.6113248250     1.1285887572
    8      H      -4.1283142016     1.9816165343    -0.5865311619
    9      H      -2.9144032311    -0.2133402162     0.3424143350
 ----------------------------------------------------------------

    7    -154.9712498603      8.03E-06 Convergence criterion met
    6    -155.0386689824      5.28E-06 Convergence criterion met
 Total energy in the final basis set = -155.03866898

                    Orbital Energies (a.u.)
 --------------------------------------------------------------

 Alpha MOs
 -- Occupied --
-19.2583 -10.3273 -10.2735  -1.1431  -0.8503  -0.7208  -0.6082  -0.5428
 -0.5235  -0.4681  -0.4609  -0.4191  -0.3659

                    Cartesian Multipole Moments
 -----------------------------------------------------------------
    Charge (ESU x 10^10)
                 0.0000
    Dipole Moment (Debye)
         X      -1.2227      Y      -0.4382      Z       1.2967
       Tot       1.8353
    Quadrupole Moments (Debye-Ang)
        XX     -11.8465     XY      -0.3148     YY     -19.2876
        XZ      -3.8455     YZ      -0.2010     ZZ     -20.1006

 Total job time:  11.21s(wall), 57.83s(cpu)
        *  Thank you very much for using Q-Chem.  Have a nice day.  *
