 Q-Chem 5.3 (devel), Q-Chem, Inc., Pleasanton, CA (2020)
 Q-Chem 5.3.0 for Intel X86 EM64T Linux

User input:
--------------------------------------------------------------
$rem
   JOBTYPE  sp
   EXCHANGE   omegaB97X-D
   BASIS   6-311+G(2df,2pd)
   UNRESTRICTED   False
   max_scf_cycles   250
   geom_opt_max_cycles   1500
   basis2 6-31G*
   scf_algorithm rca_diis
   SYM_IGNORE  TRUE
   print_input   true
   geom_opt_dmax   80
   pop_mulliken false
   XC_GRID 000075000302
$end

$molecule
0 1
C       -5.3470200238     0.3361245380     0.0380181233
C       -4.1095579279     1.1896894040     0.1201329556
H       -5.5375242348     -0.1013734317     -0.9440108138
H       -6.2829110946     0.8550388968     0.2584467946
H       -5.3587698824     -0.5227960684     0.7147403121
O       -2.9358480115     0.4868054894     -0.2285128906
H       -4.0182957429     1.6059613115     1.1290040559
H       -4.2315991026     2.0294927710     -0.5636504266
H       -2.7812839794     -0.2617229105     0.3461418895
$end
--------------------------------------------------------------

             Standard Nuclear Orientation (Angstroms)
    I     Atom           X                Y                Z
 ----------------------------------------------------------------
    1      C      -5.3470200238     0.3361245380     0.0380181233
    2      C      -4.1095579279     1.1896894040     0.1201329556
    3      H      -5.5375242348    -0.1013734317    -0.9440108138
    4      H      -6.2829110946     0.8550388968     0.2584467946
    5      H      -5.3587698824    -0.5227960684     0.7147403121
    6      O      -2.9358480115     0.4868054894    -0.2285128906
    7      H      -4.0182957429     1.6059613115     1.1290040559
    8      H      -4.2315991026     2.0294927710    -0.5636504266
    9      H      -2.7812839794    -0.2617229105     0.3461418895
 ----------------------------------------------------------------

    6    -154.9792870692      9.61E-05 Convergence criterion met
    6    -155.0479412625      5.85E-06 Convergence criterion met
 Total energy in the final basis set = -155.04794126

                    Orbital Energies (a.u.)
 --------------------------------------------------------------

 Alpha MOs
 -- Occupied --
-19.2461 -10.3295 -10.2721  -1.1259  -0.8511  -0.7268  -0.5983  -0.5476
 -0.5271  -0.4647  -0.4534  -0.4084  -0.3641

                    Cartesian Multipole Moments
 -----------------------------------------------------------------
    Charge (ESU x 10^10)
                 0.0000
    Dipole Moment (Debye)
         X      -1.1591      Y      -0.4441      Z       1.2110
       Tot       1.7341
    Quadrupole Moments (Debye-Ang)
        XX     -11.8660     XY      -0.4683     YY     -18.8796
        XZ      -3.0214     YZ      -0.3254     ZZ     -20.0918

 Total job time:  10.82s(wall), 55.69s(cpu)
        *  Thank you very much for using Q-Chem.  Have a nice day.  *
