 Q-Chem 5.3 (devel), Q-Chem, Inc., Pleasanton, CA (2020)
 Q-Chem 5.3.0 for Intel X86 EM64T Linux

User input:
--------------------------------------------------------------
$rem
   JOBTYPE  sp
   EXCHANGE   omegaB97X-D
   BASIS   6-311+G(2df,2pd)
   UNRESTRICTED   False
   max_scf_cycles   250
   geom_opt_max_cycles   1500
   basis2 6-31G*
   scf_algorithm rca_diis
   SYM_IGNORE  TRUE
   print_input   true
   geom_opt_dmax   80
   pop_mulliken false
   XC_GRID 000075000302
$end

$molecule
0 1
C       -5.3721149503     0.3698451402     -0.0889258175
C       -4.0869881781     1.1253179260     0.1569132086
H       -5.5392869134     -0.1318288850     -1.0396169839
H       -6.2524242767     0.8555323518     0.3304823480
H       -5.1987475614     -0.4190657872     0.6549972794
O       -2.9226896438     0.4683199907     -0.2479314874
H       -3.8139774071     1.5590669240     1.1220920136
H       -4.3973277579     1.9258635481     -0.5118465653
H       -3.0192533114     -0.1358312085     0.4941460046
$end
--------------------------------------------------------------

             Standard Nuclear Orientation (Angstroms)
    I     Atom           X                Y                Z
 ----------------------------------------------------------------
    1      C      -5.3721149503     0.3698451402    -0.0889258175
    2      C      -4.0869881781     1.1253179260     0.1569132086
    3      H      -5.5392869134    -0.1318288850    -1.0396169839
    4      H      -6.2524242767     0.8555323518     0.3304823480
    5      H      -5.1987475614    -0.4190657872     0.6549972794
    6      O      -2.9226896438     0.4683199907    -0.2479314874
    7      H      -3.8139774071     1.5590669240     1.1220920136
    8      H      -4.3973277579     1.9258635481    -0.5118465653
    9      H      -3.0192533114    -0.1358312085     0.4941460046
 ----------------------------------------------------------------

    7    -154.9390883871      9.21E-06 Convergence criterion met
    6    -155.0079756424      5.64E-06 Convergence criterion met
 Total energy in the final basis set = -155.00797564

                    Orbital Energies (a.u.)
 --------------------------------------------------------------

 Alpha MOs
 -- Occupied --
-19.2539 -10.3261 -10.2788  -1.1488  -0.8578  -0.7129  -0.6036  -0.5466
 -0.5392  -0.4985  -0.4592  -0.3842  -0.3661

                    Cartesian Multipole Moments
 -----------------------------------------------------------------
    Charge (ESU x 10^10)
                 0.0000
    Dipole Moment (Debye)
         X      -1.4361      Y      -0.2322      Z       1.3727
       Tot       2.0002
    Quadrupole Moments (Debye-Ang)
        XX     -10.2630     XY      -0.9322     YY     -19.9533
        XZ      -3.3156     YZ       0.2628     ZZ     -19.3940

 Total job time:  11.33s(wall), 58.27s(cpu)
        *  Thank you very much for using Q-Chem.  Have a nice day.  *
