 Q-Chem 5.3 (devel), Q-Chem, Inc., Pleasanton, CA (2020)
 Q-Chem 5.3.0 for Intel X86 EM64T Linux

User input:
--------------------------------------------------------------
$rem
   JOBTYPE  sp
   EXCHANGE   omegaB97X-D
   BASIS   6-311+G(2df,2pd)
   UNRESTRICTED   False
   max_scf_cycles   250
   geom_opt_max_cycles   1500
   basis2 6-31G*
   scf_algorithm rca_diis
   SYM_IGNORE  TRUE
   print_input   true
   geom_opt_dmax   80
   pop_mulliken false
   XC_GRID 000075000302
$end

$molecule
0 1
C       -5.3692280775     0.3046921727     0.0103224709
C       -4.1325814526     1.1799099305     0.1099573469
H       -5.4733186368     -0.0622412741     -0.9141035875
H       -6.2972763482     0.9027994885     0.2737723893
H       -5.3098550973     -0.5547291288     0.7309313342
O       -2.9489295202     0.4923582228     -0.2490723453
H       -4.0385991044     1.6054678028     1.1314494564
H       -4.2053838318     1.9980128693     -0.5664971032
H       -2.8276379311     -0.2490500836     0.3435500383
$end
--------------------------------------------------------------

             Standard Nuclear Orientation (Angstroms)
    I     Atom           X                Y                Z
 ----------------------------------------------------------------
    1      C      -5.3692280775     0.3046921727     0.0103224709
    2      C      -4.1325814526     1.1799099305     0.1099573469
    3      H      -5.4733186368    -0.0622412741    -0.9141035875
    4      H      -6.2972763482     0.9027994885     0.2737723893
    5      H      -5.3098550973    -0.5547291288     0.7309313342
    6      O      -2.9489295202     0.4923582228    -0.2490723453
    7      H      -4.0385991044     1.6054678028     1.1314494564
    8      H      -4.2053838318     1.9980128693    -0.5664971032
    9      H      -2.8276379311    -0.2490500836     0.3435500383
 ----------------------------------------------------------------

    7    -154.9742582943      7.59E-06 Convergence criterion met
    6    -155.0429590137      5.76E-06 Convergence criterion met
 Total energy in the final basis set = -155.04295901

                    Orbital Energies (a.u.)
 --------------------------------------------------------------

 Alpha MOs
 -- Occupied --
-19.2463 -10.3261 -10.2725  -1.1263  -0.8514  -0.7259  -0.5978  -0.5452
 -0.5207  -0.4798  -0.4536  -0.4131  -0.3623

                    Cartesian Multipole Moments
 -----------------------------------------------------------------
    Charge (ESU x 10^10)
                 0.0000
    Dipole Moment (Debye)
         X      -1.1683      Y      -0.4251      Z       1.1557
       Tot       1.6975
    Quadrupole Moments (Debye-Ang)
        XX     -12.1669     XY      -0.5907     YY     -18.9167
        XZ      -2.8055     YZ      -0.3526     ZZ     -19.9642

 Total job time:  11.08s(wall), 57.15s(cpu)
        *  Thank you very much for using Q-Chem.  Have a nice day.  *
