 Q-Chem 5.3 (devel), Q-Chem, Inc., Pleasanton, CA (2020)
 Q-Chem 5.3.0 for Intel X86 EM64T Linux

User input:
--------------------------------------------------------------
$rem
   JOBTYPE  sp
   EXCHANGE   omegaB97X-D
   BASIS   6-311+G(2df,2pd)
   UNRESTRICTED   False
   max_scf_cycles   250
   geom_opt_max_cycles   1500
   basis2 6-31G*
   scf_algorithm rca_diis
   SYM_IGNORE  TRUE
   print_input   true
   geom_opt_dmax   80
   pop_mulliken false
   XC_GRID 000075000302
$end

$molecule
0 1
C       -5.3068450707     0.3321547851     0.0839884081
C       -4.2138227512     1.1661813926     0.0728308930
H       -5.3522309775     -0.0093733863     -0.9489281381
H       -6.1963501123     0.9399403315     0.2530325193
H       -5.2854152030     -0.5203078910     0.7589438056
O       -2.8519763567     0.4125548291     -0.2931141179
H       -4.0198859957     1.5050381759     1.0891863738
H       -4.4140800463     2.0312062047     -0.5513050552
H       -2.9622034865     -0.2401744415     0.4056753114
$end
--------------------------------------------------------------

             Standard Nuclear Orientation (Angstroms)
    I     Atom           X                Y                Z
 ----------------------------------------------------------------
    1      C      -5.3068450707     0.3321547851     0.0839884081
    2      C      -4.2138227512     1.1661813926     0.0728308930
    3      H      -5.3522309775    -0.0093733863    -0.9489281381
    4      H      -6.1963501123     0.9399403315     0.2530325193
    5      H      -5.2854152030    -0.5203078910     0.7589438056
    6      O      -2.8519763567     0.4125548291    -0.2931141179
    7      H      -4.0198859957     1.5050381759     1.0891863738
    8      H      -4.4140800463     2.0312062047    -0.5513050552
    9      H      -2.9622034865    -0.2401744415     0.4056753114
 ----------------------------------------------------------------

    7    -154.9437212889      1.52E-05 Convergence criterion met
    6    -155.0141276433      7.67E-06 Convergence criterion met
 Total energy in the final basis set = -155.01412764

                    Orbital Energies (a.u.)
 --------------------------------------------------------------

 Alpha MOs
 -- Occupied --
-19.2442 -10.3293 -10.2750  -1.0863  -0.8966  -0.7061  -0.5882  -0.5516
 -0.5351  -0.4739  -0.4481  -0.4193  -0.3637

                    Cartesian Multipole Moments
 -----------------------------------------------------------------
    Charge (ESU x 10^10)
                 0.0000
    Dipole Moment (Debye)
         X      -2.1904      Y      -0.0201      Z       1.3938
       Tot       2.5963
    Quadrupole Moments (Debye-Ang)
        XX      -4.7849     XY      -2.6099     YY     -18.4951
        XZ      -3.8463     YZ      -0.6712     ZZ     -19.7686

 Total job time:  11.30s(wall), 58.12s(cpu)
        *  Thank you very much for using Q-Chem.  Have a nice day.  *
