 Q-Chem 5.3 (devel), Q-Chem, Inc., Pleasanton, CA (2020)
 Q-Chem 5.3.0 for Intel X86 EM64T Linux

User input:
--------------------------------------------------------------
$rem
   JOBTYPE  sp
   EXCHANGE   omegaB97X-D
   BASIS   6-311+G(2df,2pd)
   UNRESTRICTED   False
   max_scf_cycles   250
   geom_opt_max_cycles   1500
   basis2 6-31G*
   scf_algorithm rca_diis
   SYM_IGNORE  TRUE
   print_input   true
   geom_opt_dmax   80
   pop_mulliken false
   XC_GRID 000075000302
$end

$molecule
0 1
C       -5.3677405870     0.3045291618     0.0421433275
C       -4.1330036495     1.1864134421     0.1119929865
H       -5.4909086750     -0.1073979144     -0.9901454575
H       -6.2910362163     0.9008469710     0.2984186274
H       -5.3070612282     -0.4943871715     0.7104541579
O       -2.9507461383     0.4956789071     -0.2498259636
H       -4.0303632934     1.6166860196     1.1340855277
H       -4.2079482955     1.9568392955     -0.5313941848
H       -2.8240019167     -0.2419887113     0.3445809788
$end
--------------------------------------------------------------

             Standard Nuclear Orientation (Angstroms)
    I     Atom           X                Y                Z
 ----------------------------------------------------------------
    1      C      -5.3677405870     0.3045291618     0.0421433275
    2      C      -4.1330036495     1.1864134421     0.1119929865
    3      H      -5.4909086750    -0.1073979144    -0.9901454575
    4      H      -6.2910362163     0.9008469710     0.2984186274
    5      H      -5.3070612282    -0.4943871715     0.7104541579
    6      O      -2.9507461383     0.4956789071    -0.2498259636
    7      H      -4.0303632934     1.6166860196     1.1340855277
    8      H      -4.2079482955     1.9568392955    -0.5313941848
    9      H      -2.8240019167    -0.2419887113     0.3445809788
 ----------------------------------------------------------------

    7    -154.9742541711      7.12E-06 Convergence criterion met
    6    -155.0430810919      5.73E-06 Convergence criterion met
 Total energy in the final basis set = -155.04308109

                    Orbital Energies (a.u.)
 --------------------------------------------------------------

 Alpha MOs
 -- Occupied --
-19.2456 -10.3202 -10.2756  -1.1258  -0.8513  -0.7292  -0.5934  -0.5525
 -0.5217  -0.4651  -0.4633  -0.4151  -0.3616

                    Cartesian Multipole Moments
 -----------------------------------------------------------------
    Charge (ESU x 10^10)
                 0.0000
    Dipole Moment (Debye)
         X      -1.1504      Y      -0.4069      Z       1.2363
       Tot       1.7370
    Quadrupole Moments (Debye-Ang)
        XX     -12.3365     XY      -0.6450     YY     -18.8366
        XZ      -3.2533     YZ      -0.3426     ZZ     -19.9449

 Total job time:  11.06s(wall), 57.09s(cpu)
        *  Thank you very much for using Q-Chem.  Have a nice day.  *
