 Q-Chem 5.3 (devel), Q-Chem, Inc., Pleasanton, CA (2020)
 Q-Chem 5.3.0 for Intel X86 EM64T Linux

User input:
--------------------------------------------------------------
$rem
   JOBTYPE  sp
   EXCHANGE   omegaB97X-D
   BASIS   6-311+G(2df,2pd)
   UNRESTRICTED   False
   max_scf_cycles   250
   geom_opt_max_cycles   1500
   basis2 6-31G*
   scf_algorithm rca_diis
   SYM_IGNORE  TRUE
   print_input   true
   geom_opt_dmax   80
   pop_mulliken false
   XC_GRID 000075000302
$end

$molecule
0 1
C       -5.4161508760     0.2794811427     0.0226216853
C       -4.1114047953     1.0926806407     0.0927626617
H       -5.6622532054     -0.0998988321     -0.9692022071
H       -6.1832521829     1.0068388353     0.3013451075
H       -5.4734211765     -0.5410187147     0.7395860631
O       -2.8092475652     0.6003263483     -0.1979941325
H       -4.1172592235     1.4959469419     1.1124617723
H       -4.2172008384     1.9440662967     -0.5792461473
H       -2.6126201366     -0.1612026588     0.3479751970
$end
--------------------------------------------------------------

             Standard Nuclear Orientation (Angstroms)
    I     Atom           X                Y                Z
 ----------------------------------------------------------------
    1      C      -5.4161508760     0.2794811427     0.0226216853
    2      C      -4.1114047953     1.0926806407     0.0927626617
    3      H      -5.6622532054    -0.0998988321    -0.9692022071
    4      H      -6.1832521829     1.0068388353     0.3013451075
    5      H      -5.4734211765    -0.5410187147     0.7395860631
    6      O      -2.8092475652     0.6003263483    -0.1979941325
    7      H      -4.1172592235     1.4959469419     1.1124617723
    8      H      -4.2172008384     1.9440662967    -0.5792461473
    9      H      -2.6126201366    -0.1612026588     0.3479751970
 ----------------------------------------------------------------

    7    -154.9750452773      7.33E-06 Convergence criterion met
    6    -155.0433416969      5.57E-06 Convergence criterion met
 Total energy in the final basis set = -155.04334170

                    Orbital Energies (a.u.)
 --------------------------------------------------------------

 Alpha MOs
 -- Occupied --
-19.2496 -10.3295 -10.2792  -1.1231  -0.8525  -0.7227  -0.5945  -0.5438
 -0.5178  -0.4718  -0.4581  -0.4131  -0.3607

                    Cartesian Multipole Moments
 -----------------------------------------------------------------
    Charge (ESU x 10^10)
                 0.0000
    Dipole Moment (Debye)
         X      -1.2201      Y      -0.6629      Z       1.1440
       Tot       1.7991
    Quadrupole Moments (Debye-Ang)
        XX     -11.4296     XY      -0.1516     YY     -19.5733
        XZ      -2.8545     YZ      -0.2875     ZZ     -19.9912

 Total job time:  10.84s(wall), 55.92s(cpu)
        *  Thank you very much for using Q-Chem.  Have a nice day.  *
