 Q-Chem 5.3 (devel), Q-Chem, Inc., Pleasanton, CA (2020)
 Q-Chem 5.3.0 for Intel X86 EM64T Linux

User input:
--------------------------------------------------------------
$rem
   JOBTYPE  sp
   EXCHANGE   omegaB97X-D
   BASIS   6-311+G(2df,2pd)
   UNRESTRICTED   False
   max_scf_cycles   250
   geom_opt_max_cycles   1500
   basis2 6-31G*
   scf_algorithm rca_diis
   SYM_IGNORE  TRUE
   print_input   true
   geom_opt_dmax   80
   pop_mulliken false
   XC_GRID 000075000302
$end

$molecule
0 1
C       -5.3572577996     0.3102551393     0.0338279503
C       -4.1533088193     1.1825980087     0.1285366174
H       -5.5157648631     -0.0915784455     -0.9666080980
H       -6.2772856819     0.8387846490     0.2906944484
H       -5.3373812074     -0.5350064050     0.7263961119
O       -2.9541490649     0.5100640264     -0.2527451900
H       -3.9997223186     1.6089026836     1.1261235533
H       -4.1472156476     2.0156983492     -0.5732940049
H       -2.8607245974     -0.2224980058     0.3573786116
$end
--------------------------------------------------------------

             Standard Nuclear Orientation (Angstroms)
    I     Atom           X                Y                Z
 ----------------------------------------------------------------
    1      C      -5.3572577996     0.3102551393     0.0338279503
    2      C      -4.1533088193     1.1825980087     0.1285366174
    3      H      -5.5157648631    -0.0915784455    -0.9666080980
    4      H      -6.2772856819     0.8387846490     0.2906944484
    5      H      -5.3373812074    -0.5350064050     0.7263961119
    6      O      -2.9541490649     0.5100640264    -0.2527451900
    7      H      -3.9997223186     1.6089026836     1.1261235533
    8      H      -4.1472156476     2.0156983492    -0.5732940049
    9      H      -2.8607245974    -0.2224980058     0.3573786116
 ----------------------------------------------------------------

    7    -154.9799206556      8.82E-06 Convergence criterion met
    6    -155.0483075079      5.93E-06 Convergence criterion met
 Total energy in the final basis set = -155.04830751

                    Orbital Energies (a.u.)
 --------------------------------------------------------------

 Alpha MOs
 -- Occupied --
-19.2437 -10.3263 -10.2754  -1.1233  -0.8531  -0.7246  -0.5944  -0.5392
 -0.5299  -0.4733  -0.4527  -0.4150  -0.3633

                    Cartesian Multipole Moments
 -----------------------------------------------------------------
    Charge (ESU x 10^10)
                 0.0000
    Dipole Moment (Debye)
         X      -1.3109      Y      -0.4197      Z       1.2764
       Tot       1.8771
    Quadrupole Moments (Debye-Ang)
        XX     -10.8831     XY      -0.3022     YY     -19.0166
        XZ      -3.3994     YZ      -0.2590     ZZ     -19.9029

 Total job time:  11.12s(wall), 57.31s(cpu)
        *  Thank you very much for using Q-Chem.  Have a nice day.  *
