 Q-Chem 5.3 (devel), Q-Chem, Inc., Pleasanton, CA (2020)
 Q-Chem 5.3.0 for Intel X86 EM64T Linux

User input:
--------------------------------------------------------------
$rem
   JOBTYPE  sp
   EXCHANGE   omegaB97X-D
   BASIS   6-311+G(2df,2pd)
   UNRESTRICTED   False
   max_scf_cycles   250
   geom_opt_max_cycles   1500
   basis2 6-31G*
   scf_algorithm rca_diis
   SYM_IGNORE  TRUE
   print_input   true
   geom_opt_dmax   80
   pop_mulliken false
   XC_GRID 000075000302
$end

$molecule
0 1
C       -5.2205320224     0.2618845030     -0.0030540460
C       -4.1717644018     1.0637085895     0.1006352085
H       -5.5472381716     -0.0765489760     -0.9824692882
H       -5.8392185048     1.1101353644     0.3049144418
H       -5.3484310959     -0.5135789249     0.7516091865
O       -3.0449149395     0.5600643590     -0.2066329951
H       -4.2336438554     1.4860362850     1.1180169455
H       -4.3722983317     1.9080187031     -0.5634431981
H       -2.8247686767     -0.1824999030     0.3507337453
$end
--------------------------------------------------------------

             Standard Nuclear Orientation (Angstroms)
    I     Atom           X                Y                Z
 ----------------------------------------------------------------
    1      C      -5.2205320224     0.2618845030    -0.0030540460
    2      C      -4.1717644018     1.0637085895     0.1006352085
    3      H      -5.5472381716    -0.0765489760    -0.9824692882
    4      H      -5.8392185048     1.1101353644     0.3049144418
    5      H      -5.3484310959    -0.5135789249     0.7516091865
    6      O      -3.0449149395     0.5600643590    -0.2066329951
    7      H      -4.2336438554     1.4860362850     1.1180169455
    8      H      -4.3722983317     1.9080187031    -0.5634431981
    9      H      -2.8247686767    -0.1824999030     0.3507337453
 ----------------------------------------------------------------

    6    -154.9089528309      7.59E-05 Convergence criterion met
    6    -154.9818460152      7.53E-06 Convergence criterion met
 Total energy in the final basis set = -154.98184602

                    Orbital Energies (a.u.)
 --------------------------------------------------------------

 Alpha MOs
 -- Occupied --
-19.2410 -10.3034 -10.2526  -1.1788  -0.9001  -0.7225  -0.6295  -0.5837
 -0.5495  -0.4793  -0.4382  -0.3900  -0.3555

                    Cartesian Multipole Moments
 -----------------------------------------------------------------
    Charge (ESU x 10^10)
                -0.0000
    Dipole Moment (Debye)
         X      -0.7442      Y      -0.6856      Z       1.0737
       Tot       1.4754
    Quadrupole Moments (Debye-Ang)
        XX     -15.5535     XY       0.4274     YY     -19.5542
        XZ      -2.5835     YZ      -0.3682     ZZ     -19.7778

 Total job time:  11.40s(wall), 58.57s(cpu)
        *  Thank you very much for using Q-Chem.  Have a nice day.  *
