 Q-Chem 5.3 (devel), Q-Chem, Inc., Pleasanton, CA (2020)
 Q-Chem 5.3.0 for Intel X86 EM64T Linux

User input:
--------------------------------------------------------------
$rem
   JOBTYPE  sp
   EXCHANGE   omegaB97X-D
   BASIS   6-311+G(2df,2pd)
   UNRESTRICTED   False
   max_scf_cycles   250
   geom_opt_max_cycles   1500
   basis2 6-31G*
   scf_algorithm rca_diis
   SYM_IGNORE  TRUE
   print_input   true
   geom_opt_dmax   80
   pop_mulliken false
   XC_GRID 000075000302
$end

$molecule
0 1
C       -5.4676405087     0.2192319016     0.0257476682
C       -4.2185601052     1.1379890226     0.1259840266
H       -5.3263668021     -0.0257674302     -1.0206840972
H       -6.1657183111     0.9795866574     0.3648912522
H       -5.1537405805     -0.5084604774     0.7719037368
O       -3.0169904628     0.4946078119     -0.2899842853
H       -4.1060094073     1.5779756842     1.1265612749
H       -4.1570020912     1.9574234354     -0.5893403948
H       -2.9907817311     -0.2153666055     0.3552308188
$end
--------------------------------------------------------------

             Standard Nuclear Orientation (Angstroms)
    I     Atom           X                Y                Z
 ----------------------------------------------------------------
    1      C      -5.4676405087     0.2192319016     0.0257476682
    2      C      -4.2185601052     1.1379890226     0.1259840266
    3      H      -5.3263668021    -0.0257674302    -1.0206840972
    4      H      -6.1657183111     0.9795866574     0.3648912522
    5      H      -5.1537405805    -0.5084604774     0.7719037368
    6      O      -3.0169904628     0.4946078119    -0.2899842853
    7      H      -4.1060094073     1.5779756842     1.1265612749
    8      H      -4.1570020912     1.9574234354    -0.5893403948
    9      H      -2.9907817311    -0.2153666055     0.3552308188
 ----------------------------------------------------------------

    7    -154.9498010253      8.99E-06 Convergence criterion met
    6    -155.0188145010      6.00E-06 Convergence criterion met
 Total energy in the final basis set = -155.01881450

                    Orbital Energies (a.u.)
 --------------------------------------------------------------

 Alpha MOs
 -- Occupied --
-19.2485 -10.3258 -10.2823  -1.1307  -0.8565  -0.7157  -0.6009  -0.5477
 -0.5212  -0.4699  -0.4604  -0.4174  -0.3584

                    Cartesian Multipole Moments
 -----------------------------------------------------------------
    Charge (ESU x 10^10)
                -0.0000
    Dipole Moment (Debye)
         X      -1.0631      Y      -0.2162      Z       1.3321
       Tot       1.7180
    Quadrupole Moments (Debye-Ang)
        XX     -14.3078     XY      -1.6681     YY     -19.2481
        XZ      -3.9924     YZ      -0.2009     ZZ     -19.5898

 Total job time:  11.51s(wall), 59.25s(cpu)
        *  Thank you very much for using Q-Chem.  Have a nice day.  *
