 Q-Chem 5.3 (devel), Q-Chem, Inc., Pleasanton, CA (2020)
 Q-Chem 5.3.0 for Intel X86 EM64T Linux

User input:
--------------------------------------------------------------
$rem
   JOBTYPE  sp
   EXCHANGE   omegaB97X-D
   BASIS   6-311+G(2df,2pd)
   UNRESTRICTED   False
   max_scf_cycles   250
   geom_opt_max_cycles   1500
   basis2 6-31G*
   scf_algorithm rca_diis
   SYM_IGNORE  TRUE
   print_input   true
   geom_opt_dmax   80
   pop_mulliken false
   XC_GRID 000075000302
$end

$molecule
0 1
C       -5.3422915734     0.3111193714     0.0319581510
C       -4.1735753954     1.1835183289     0.1336242349
H       -5.5407861229     -0.0928018551     -0.9603042625
H       -6.2875324237     0.7921407712     0.2932316231
H       -5.3629605013     -0.5384825386     0.7202163975
O       -2.9535408426     0.5318289750     -0.2611721287
H       -3.9664826080     1.6128135293     1.1197290629
H       -4.0868482889     2.0091760788     -0.5710435582
H       -2.8887922437     -0.1920926609     0.3640704800
$end
--------------------------------------------------------------

             Standard Nuclear Orientation (Angstroms)
    I     Atom           X                Y                Z
 ----------------------------------------------------------------
    1      C      -5.3422915734     0.3111193714     0.0319581510
    2      C      -4.1735753954     1.1835183289     0.1336242349
    3      H      -5.5407861229    -0.0928018551    -0.9603042625
    4      H      -6.2875324237     0.7921407712     0.2932316231
    5      H      -5.3629605013    -0.5384825386     0.7202163975
    6      O      -2.9535408426     0.5318289750    -0.2611721287
    7      H      -3.9664826080     1.6128135293     1.1197290629
    8      H      -4.0868482889     2.0091760788    -0.5710435582
    9      H      -2.8887922437    -0.1920926609     0.3640704800
 ----------------------------------------------------------------

    7    -154.9715647339      1.06E-05 Convergence criterion met
    6    -155.0403783516      6.24E-06 Convergence criterion met
 Total energy in the final basis set = -155.04037835

                    Orbital Energies (a.u.)
 --------------------------------------------------------------

 Alpha MOs
 -- Occupied --
-19.2415 -10.3252 -10.2765  -1.1213  -0.8573  -0.7264  -0.5943  -0.5405
 -0.5303  -0.4769  -0.4457  -0.4168  -0.3632

                    Cartesian Multipole Moments
 -----------------------------------------------------------------
    Charge (ESU x 10^10)
                 0.0000
    Dipole Moment (Debye)
         X      -1.4399      Y      -0.4346      Z       1.3071
       Tot       1.9927
    Quadrupole Moments (Debye-Ang)
        XX      -9.7011     XY       0.0664     YY     -19.1411
        XZ      -3.5376     YZ      -0.2108     ZZ     -19.8991

 Total job time:  11.09s(wall), 57.24s(cpu)
        *  Thank you very much for using Q-Chem.  Have a nice day.  *
