 Q-Chem 5.3 (devel), Q-Chem, Inc., Pleasanton, CA (2020)
 Q-Chem 5.3.0 for Intel X86 EM64T Linux

User input:
--------------------------------------------------------------
$rem
   JOBTYPE  sp
   EXCHANGE   omegaB97X-D
   BASIS   6-311+G(2df,2pd)
   UNRESTRICTED   False
   max_scf_cycles   250
   geom_opt_max_cycles   1500
   basis2 6-31G*
   scf_algorithm rca_diis
   SYM_IGNORE  TRUE
   print_input   true
   geom_opt_dmax   80
   pop_mulliken false
   XC_GRID 000075000302
$end

$molecule
0 1
C       -5.3995827488     0.3793137544     0.1248595913
C       -4.1143916259     1.1369189239     0.0302906500
H       -5.2888837145     -0.0219503287     -0.8889431549
H       -6.3860671194     0.8152576839     0.2328314950
H       -5.2754361987     -0.5274980682     0.7218074618
O       -3.0228558575     0.5258740639     -0.2311906035
H       -3.8625939035     1.4630844576     1.0473634647
H       -4.2495449998     2.0418979350     -0.5621159016
H       -3.0034538317     -0.1956784219     0.3954069971
$end
--------------------------------------------------------------

             Standard Nuclear Orientation (Angstroms)
    I     Atom           X                Y                Z
 ----------------------------------------------------------------
    1      C      -5.3995827488     0.3793137544     0.1248595913
    2      C      -4.1143916259     1.1369189239     0.0302906500
    3      H      -5.2888837145    -0.0219503287    -0.8889431549
    4      H      -6.3860671194     0.8152576839     0.2328314950
    5      H      -5.2754361987    -0.5274980682     0.7218074618
    6      O      -3.0228558575     0.5258740639    -0.2311906035
    7      H      -3.8625939035     1.4630844576     1.0473634647
    8      H      -4.2495449998     2.0418979350    -0.5621159016
    9      H      -3.0034538317    -0.1956784219     0.3954069971
 ----------------------------------------------------------------

    6    -154.9345031514      7.96E-05 Convergence criterion met
    6    -155.0044860326      5.30E-06 Convergence criterion met
 Total energy in the final basis set = -155.00448603

                    Orbital Energies (a.u.)
 --------------------------------------------------------------

 Alpha MOs
 -- Occupied --
-19.2530 -10.3169 -10.2711  -1.1890  -0.8521  -0.7321  -0.6158  -0.5665
 -0.5592  -0.4762  -0.4505  -0.4139  -0.3362

                    Cartesian Multipole Moments
 -----------------------------------------------------------------
    Charge (ESU x 10^10)
                 0.0000
    Dipole Moment (Debye)
         X      -0.9355      Y      -0.6141      Z       1.0093
       Tot       1.5070
    Quadrupole Moments (Debye-Ang)
        XX     -13.4538     XY       0.4191     YY     -19.8151
        XZ      -2.5179     YZ      -1.0908     ZZ     -20.4773

 Total job time:  11.15s(wall), 57.49s(cpu)
        *  Thank you very much for using Q-Chem.  Have a nice day.  *
