 Q-Chem 5.3 (devel), Q-Chem, Inc., Pleasanton, CA (2020)
 Q-Chem 5.3.0 for Intel X86 EM64T Linux

User input:
--------------------------------------------------------------
$rem
   JOBTYPE  sp
   EXCHANGE   omegaB97X-D
   BASIS   6-311+G(2df,2pd)
   UNRESTRICTED   False
   max_scf_cycles   250
   geom_opt_max_cycles   1500
   basis2 6-31G*
   scf_algorithm rca_diis
   SYM_IGNORE  TRUE
   print_input   true
   geom_opt_dmax   80
   pop_mulliken false
   XC_GRID 000075000302
$end

$molecule
0 1
C       -5.3737130069     0.2898813957     0.1231829346
C       -4.1336298152     1.1651761682     0.1758402121
H       -5.7819962519     -0.0061658890     -0.8505606138
H       -6.2578528536     0.9081489880     -0.0355405505
H       -5.0194164030     -0.5630910611     0.6871436063
O       -2.9595522162     0.4886827785     -0.2415470971
H       -4.0065666302     1.5941696298     1.1771924880
H       -4.2040298116     1.9704735196     -0.5513259233
H       -2.8660530116     -0.2300555296     0.3859249439
$end
--------------------------------------------------------------

             Standard Nuclear Orientation (Angstroms)
    I     Atom           X                Y                Z
 ----------------------------------------------------------------
    1      C      -5.3737130069     0.2898813957     0.1231829346
    2      C      -4.1336298152     1.1651761682     0.1758402121
    3      H      -5.7819962519    -0.0061658890    -0.8505606138
    4      H      -6.2578528536     0.9081489880    -0.0355405505
    5      H      -5.0194164030    -0.5630910611     0.6871436063
    6      O      -2.9595522162     0.4886827785    -0.2415470971
    7      H      -4.0065666302     1.5941696298     1.1771924880
    8      H      -4.2040298116     1.9704735196    -0.5513259233
    9      H      -2.8660530116    -0.2300555296     0.3859249439
 ----------------------------------------------------------------

    7    -154.9243103895      1.16E-05 Convergence criterion met
    6    -154.9960316174      5.90E-06 Convergence criterion met
 Total energy in the final basis set = -154.99603162

                    Orbital Energies (a.u.)
 --------------------------------------------------------------

 Alpha MOs
 -- Occupied --
-19.2473 -10.3268 -10.2776  -1.1287  -0.8568  -0.7281  -0.6116  -0.5712
 -0.5129  -0.4807  -0.4411  -0.3832  -0.3616

                    Cartesian Multipole Moments
 -----------------------------------------------------------------
    Charge (ESU x 10^10)
                 0.0000
    Dipole Moment (Debye)
         X      -1.2810      Y      -0.3296      Z       0.9598
       Tot       1.6343
    Quadrupole Moments (Debye-Ang)
        XX     -10.8244     XY      -1.1581     YY     -19.1574
        XZ      -0.5156     YZ      -0.8147     ZZ     -20.3793

 Total job time:  11.17s(wall), 57.50s(cpu)
        *  Thank you very much for using Q-Chem.  Have a nice day.  *
