 Q-Chem 5.3 (devel), Q-Chem, Inc., Pleasanton, CA (2020)
 Q-Chem 5.3.0 for Intel X86 EM64T Linux

User input:
--------------------------------------------------------------
$rem
   JOBTYPE  sp
   EXCHANGE   omegaB97X-D
   BASIS   6-311+G(2df,2pd)
   UNRESTRICTED   False
   max_scf_cycles   250
   geom_opt_max_cycles   1500
   basis2 6-31G*
   scf_algorithm rca_diis
   SYM_IGNORE  TRUE
   print_input   true
   geom_opt_dmax   80
   pop_mulliken false
   XC_GRID 000075000302
$end

$molecule
0 1
C       -5.3905130526     0.3053373244     0.0236409144
C       -4.1128309055     1.1813771007     0.1365335546
H       -5.5251419092     -0.1086808888     -0.9757618862
H       -6.2820467624     0.8736030560     0.2937777674
H       -5.3200525147     -0.5295556154     0.7262521720
O       -2.9776185236     0.5083189923     -0.2280246768
H       -4.0378948655     1.6257530634     1.1377119392
H       -4.1569887172     2.0078135984     -0.5740948390
H       -2.7997227491     -0.2467466309     0.3302750545
$end
--------------------------------------------------------------

             Standard Nuclear Orientation (Angstroms)
    I     Atom           X                Y                Z
 ----------------------------------------------------------------
    1      C      -5.3905130526     0.3053373244     0.0236409144
    2      C      -4.1128309055     1.1813771007     0.1365335546
    3      H      -5.5251419092    -0.1086808888    -0.9757618862
    4      H      -6.2820467624     0.8736030560     0.2937777674
    5      H      -5.3200525147    -0.5295556154     0.7262521720
    6      O      -2.9776185236     0.5083189923    -0.2280246768
    7      H      -4.0378948655     1.6257530634     1.1377119392
    8      H      -4.1569887172     2.0078135984    -0.5740948390
    9      H      -2.7997227491    -0.2467466309     0.3302750545
 ----------------------------------------------------------------

    6    -154.9801766266      7.75E-05 Convergence criterion met
    6    -155.0483976950      5.47E-06 Convergence criterion met
 Total energy in the final basis set = -155.04839770

                    Orbital Energies (a.u.)
 --------------------------------------------------------------

 Alpha MOs
 -- Occupied --
-19.2466 -10.3268 -10.2736  -1.1398  -0.8404  -0.7296  -0.6021  -0.5446
 -0.5222  -0.4712  -0.4598  -0.4045  -0.3604

                    Cartesian Multipole Moments
 -----------------------------------------------------------------
    Charge (ESU x 10^10)
                -0.0000
    Dipole Moment (Debye)
         X      -0.9042      Y      -0.5130      Z       1.1843
       Tot       1.5759
    Quadrupole Moments (Debye-Ang)
        XX     -14.0092     XY      -0.1252     YY     -19.1182
        XZ      -3.0706     YZ      -0.2013     ZZ     -19.9786

 Total job time:  10.76s(wall), 55.40s(cpu)
        *  Thank you very much for using Q-Chem.  Have a nice day.  *
