 Q-Chem 5.3 (devel), Q-Chem, Inc., Pleasanton, CA (2020)
 Q-Chem 5.3.0 for Intel X86 EM64T Linux

User input:
--------------------------------------------------------------
$rem
   JOBTYPE  sp
   EXCHANGE   omegaB97X-D
   BASIS   6-311+G(2df,2pd)
   UNRESTRICTED   False
   max_scf_cycles   250
   geom_opt_max_cycles   1500
   basis2 6-31G*
   scf_algorithm rca_diis
   SYM_IGNORE  TRUE
   print_input   true
   geom_opt_dmax   80
   pop_mulliken false
   XC_GRID 000075000302
$end

$molecule
0 1
C       -5.3410038078     0.3188683333     -0.1470070368
C       -4.1453813640     1.2518699918     -0.0174254145
H       -5.6705712001     -0.4396365591     -0.8486762305
H       -6.2024527638     0.8413695064     0.2723433345
H       -4.9595889978     -0.1155631406     0.7876105354
O       -2.9369438509     0.5258135586     -0.1731161354
H       -4.2450941155     1.2651452488     1.0797537015
H       -4.0118996301     2.2684413113     -0.3717774291
H       -3.0898742698     -0.2990882504     0.2886046750
$end
--------------------------------------------------------------

             Standard Nuclear Orientation (Angstroms)
    I     Atom           X                Y                Z
 ----------------------------------------------------------------
    1      C      -5.3410038078     0.3188683333    -0.1470070368
    2      C      -4.1453813640     1.2518699918    -0.0174254145
    3      H      -5.6705712001    -0.4396365591    -0.8486762305
    4      H      -6.2024527638     0.8413695064     0.2723433345
    5      H      -4.9595889978    -0.1155631406     0.7876105354
    6      O      -2.9369438509     0.5258135586    -0.1731161354
    7      H      -4.2450941155     1.2651452488     1.0797537015
    8      H      -4.0118996301     2.2684413113    -0.3717774291
    9      H      -3.0898742698    -0.2990882504     0.2886046750
 ----------------------------------------------------------------

    6    -154.9209627734      9.50E-05 Convergence criterion met
    6    -154.9921128309      6.82E-06 Convergence criterion met
 Total energy in the final basis set = -154.99211283

                    Orbital Energies (a.u.)
 --------------------------------------------------------------

 Alpha MOs
 -- Occupied --
-19.2451 -10.3368 -10.2844  -1.1317  -0.8682  -0.7245  -0.6094  -0.5510
 -0.5186  -0.4920  -0.4426  -0.4084  -0.3520

                    Cartesian Multipole Moments
 -----------------------------------------------------------------
    Charge (ESU x 10^10)
                 0.0000
    Dipole Moment (Debye)
         X      -1.6367      Y      -0.4709      Z       1.0268
       Tot       1.9886
    Quadrupole Moments (Debye-Ang)
        XX      -9.3418     XY       0.0824     YY     -18.5217
        XZ      -3.0596     YZ      -0.0731     ZZ     -20.3729

 Total job time:  11.10s(wall), 57.13s(cpu)
        *  Thank you very much for using Q-Chem.  Have a nice day.  *
