 Q-Chem 5.3 (devel), Q-Chem, Inc., Pleasanton, CA (2020)
 Q-Chem 5.3.0 for Intel X86 EM64T Linux

User input:
--------------------------------------------------------------
$rem
   JOBTYPE  sp
   EXCHANGE   omegaB97X-D
   BASIS   6-311+G(2df,2pd)
   UNRESTRICTED   False
   max_scf_cycles   250
   geom_opt_max_cycles   1500
   basis2 6-31G*
   scf_algorithm rca_diis
   SYM_IGNORE  TRUE
   print_input   true
   geom_opt_dmax   80
   pop_mulliken false
   XC_GRID 000075000302
$end

$molecule
0 1
C       -5.4577984548     0.3187827104     0.0469072148
C       -4.0606695782     1.1549596643     0.0934711549
H       -5.3844907570     -0.0702184083     -0.9691740467
H       -6.1972625163     1.0880060737     0.2625974119
H       -5.2209233969     -0.4790638815     0.7502355585
O       -2.9416405440     0.4269364319     -0.2074661490
H       -4.1902243540     1.5502073863     1.1093956451
H       -4.4529296066     1.9646282897     -0.5242550706
H       -2.6968707921     -0.3370182665     0.3085982812
$end
--------------------------------------------------------------

             Standard Nuclear Orientation (Angstroms)
    I     Atom           X                Y                Z
 ----------------------------------------------------------------
    1      C      -5.4577984548     0.3187827104     0.0469072148
    2      C      -4.0606695782     1.1549596643     0.0934711549
    3      H      -5.3844907570    -0.0702184083    -0.9691740467
    4      H      -6.1972625163     1.0880060737     0.2625974119
    5      H      -5.2209233969    -0.4790638815     0.7502355585
    6      O      -2.9416405440     0.4269364319    -0.2074661490
    7      H      -4.1902243540     1.5502073863     1.1093956451
    8      H      -4.4529296066     1.9646282897    -0.5242550706
    9      H      -2.6968707921    -0.3370182665     0.3085982812
 ----------------------------------------------------------------

    6    -154.9401105162      9.65E-05 Convergence criterion met
    6    -155.0104786843      5.75E-06 Convergence criterion met
 Total energy in the final basis set = -155.01047868

                    Orbital Energies (a.u.)
 --------------------------------------------------------------

 Alpha MOs
 -- Occupied --
-19.2588 -10.3314 -10.2727  -1.1422  -0.8464  -0.7220  -0.6182  -0.5577
 -0.5173  -0.4700  -0.4595  -0.3925  -0.3446

                    Cartesian Multipole Moments
 -----------------------------------------------------------------
    Charge (ESU x 10^10)
                 0.0000
    Dipole Moment (Debye)
         X      -0.5573      Y      -0.4734      Z       1.0949
       Tot       1.3166
    Quadrupole Moments (Debye-Ang)
        XX     -17.2692     XY      -1.7115     YY     -19.1230
        XZ      -2.7645     YZ      -0.3846     ZZ     -20.3130

 Total job time:  11.01s(wall), 56.56s(cpu)
        *  Thank you very much for using Q-Chem.  Have a nice day.  *
