 Q-Chem 5.3 (devel), Q-Chem, Inc., Pleasanton, CA (2020)
 Q-Chem 5.3.0 for Intel X86 EM64T Linux

User input:
--------------------------------------------------------------
$rem
   JOBTYPE  sp
   EXCHANGE   omegaB97X-D
   BASIS   6-311+G(2df,2pd)
   UNRESTRICTED   False
   max_scf_cycles   250
   geom_opt_max_cycles   1500
   basis2 6-31G*
   scf_algorithm rca_diis
   SYM_IGNORE  TRUE
   print_input   true
   geom_opt_dmax   80
   pop_mulliken false
   XC_GRID 000075000302
$end

$molecule
0 1
C       -5.3883368783     0.3435011632     0.0829330876
C       -4.1215586174     1.1583384994     0.0752713211
H       -5.3921573229     -0.0555716228     -0.9344887224
H       -6.3325070770     0.8537136487     0.2585860419
H       -5.2967221909     -0.5327426830     0.7289787975
O       -2.9844285836     0.5085534553     -0.2375953312
H       -3.9435944206     1.5332447568     1.0904547101
H       -4.2312804628     2.0309223314     -0.5684857870
H       -2.9122244463     -0.2227395490     0.3746558824
$end
--------------------------------------------------------------

             Standard Nuclear Orientation (Angstroms)
    I     Atom           X                Y                Z
 ----------------------------------------------------------------
    1      C      -5.3883368783     0.3435011632     0.0829330876
    2      C      -4.1215586174     1.1583384994     0.0752713211
    3      H      -5.3921573229    -0.0555716228    -0.9344887224
    4      H      -6.3325070770     0.8537136487     0.2585860419
    5      H      -5.2967221909    -0.5327426830     0.7289787975
    6      O      -2.9844285836     0.5085534553    -0.2375953312
    7      H      -3.9435944206     1.5332447568     1.0904547101
    8      H      -4.2312804628     2.0309223314    -0.5684857870
    9      H      -2.9122244463    -0.2227395490     0.3746558824
 ----------------------------------------------------------------

    6    -154.9714492256      8.46E-05 Convergence criterion met
    6    -155.0400040757      5.23E-06 Convergence criterion met
 Total energy in the final basis set = -155.04000408

                    Orbital Energies (a.u.)
 --------------------------------------------------------------

 Alpha MOs
 -- Occupied --
-19.2496 -10.3209 -10.2725  -1.1544  -0.8496  -0.7262  -0.6040  -0.5551
 -0.5404  -0.4677  -0.4590  -0.4131  -0.3538

                    Cartesian Multipole Moments
 -----------------------------------------------------------------
    Charge (ESU x 10^10)
                 0.0000
    Dipole Moment (Debye)
         X      -1.0552      Y      -0.5163      Z       1.1398
       Tot       1.6368
    Quadrupole Moments (Debye-Ang)
        XX     -12.7792     XY      -0.1155     YY     -19.3584
        XZ      -2.9275     YZ      -0.7002     ZZ     -20.1753

 Total job time:  11.00s(wall), 56.46s(cpu)
        *  Thank you very much for using Q-Chem.  Have a nice day.  *
