 Q-Chem 5.3 (devel), Q-Chem, Inc., Pleasanton, CA (2020)
 Q-Chem 5.3.0 for Intel X86 EM64T Linux

User input:
--------------------------------------------------------------
$rem
   JOBTYPE  sp
   EXCHANGE   omegaB97X-D
   BASIS   6-311+G(2df,2pd)
   UNRESTRICTED   False
   max_scf_cycles   250
   geom_opt_max_cycles   1500
   basis2 6-31G*
   scf_algorithm rca_diis
   SYM_IGNORE  TRUE
   print_input   true
   geom_opt_dmax   80
   pop_mulliken false
   XC_GRID 000075000302
$end

$molecule
0 1
C       -5.3854230169     0.3223707523     0.0391087428
C       -4.1487220686     1.2037435504     0.1316658255
H       -5.4926035527     -0.1086933159     -0.9566897321
H       -6.2676058631     0.9103099894     0.2959102311
H       -5.3245048903     -0.5404326760     0.7072581358
O       -2.9549745357     0.5226966228     -0.2354775694
H       -4.0124764684     1.5443755127     1.1607924579
H       -4.1922366650     1.9834311703     -0.6253220230
H       -2.8242629392     -0.2205816060     0.3530639315
$end
--------------------------------------------------------------

             Standard Nuclear Orientation (Angstroms)
    I     Atom           X                Y                Z
 ----------------------------------------------------------------
    1      C      -5.3854230169     0.3223707523     0.0391087428
    2      C      -4.1487220686     1.2037435504     0.1316658255
    3      H      -5.4926035527    -0.1086933159    -0.9566897321
    4      H      -6.2676058631     0.9103099894     0.2959102311
    5      H      -5.3245048903    -0.5404326760     0.7072581358
    6      O      -2.9549745357     0.5226966228    -0.2354775694
    7      H      -4.0124764684     1.5443755127     1.1607924579
    8      H      -4.1922366650     1.9834311703    -0.6253220230
    9      H      -2.8242629392    -0.2205816060     0.3530639315
 ----------------------------------------------------------------

    6    -154.9795180225      9.95E-05 Convergence criterion met
    6    -155.0480369017      5.53E-06 Convergence criterion met
 Total energy in the final basis set = -155.04803690

                    Orbital Energies (a.u.)
 --------------------------------------------------------------

 Alpha MOs
 -- Occupied --
-19.2428 -10.3279 -10.2747  -1.1227  -0.8492  -0.7226  -0.5968  -0.5439
 -0.5214  -0.4708  -0.4561  -0.4141  -0.3602

                    Cartesian Multipole Moments
 -----------------------------------------------------------------
    Charge (ESU x 10^10)
                 0.0000
    Dipole Moment (Debye)
         X      -1.1896      Y      -0.4650      Z       1.2327
       Tot       1.7751
    Quadrupole Moments (Debye-Ang)
        XX     -12.0564     XY      -0.4213     YY     -19.1264
        XZ      -3.2035     YZ      -0.3064     ZZ     -19.8082

 Total job time:  10.91s(wall), 56.04s(cpu)
        *  Thank you very much for using Q-Chem.  Have a nice day.  *
