 Q-Chem 5.3 (devel), Q-Chem, Inc., Pleasanton, CA (2020)
 Q-Chem 5.3.0 for Intel X86 EM64T Linux

User input:
--------------------------------------------------------------
$rem
   JOBTYPE  sp
   EXCHANGE   omegaB97X-D
   BASIS   6-311+G(2df,2pd)
   UNRESTRICTED   False
   max_scf_cycles   250
   geom_opt_max_cycles   1500
   basis2 6-31G*
   scf_algorithm rca_diis
   SYM_IGNORE  TRUE
   print_input   true
   geom_opt_dmax   80
   pop_mulliken false
   XC_GRID 000075000302
$end

$molecule
0 1
C       -5.3734931163     0.2962917703     0.0686898226
C       -4.1464351238     1.1910378152     0.1133757948
H       -5.4776803673     -0.0750539288     -0.9511805321
H       -6.2643138656     0.8931236612     0.2725960534
H       -5.3425592589     -0.5527298650     0.7528659847
O       -2.9615605199     0.4935562909     -0.2403144677
H       -4.0915936589     1.6084091258     1.1263004769
H       -4.1598910742     2.0315521079     -0.5806431926
H       -2.7852830150     -0.2689669774     0.3086200601
$end
--------------------------------------------------------------

             Standard Nuclear Orientation (Angstroms)
    I     Atom           X                Y                Z
 ----------------------------------------------------------------
    1      C      -5.3734931163     0.2962917703     0.0686898226
    2      C      -4.1464351238     1.1910378152     0.1133757948
    3      H      -5.4776803673    -0.0750539288    -0.9511805321
    4      H      -6.2643138656     0.8931236612     0.2725960534
    5      H      -5.3425592589    -0.5527298650     0.7528659847
    6      O      -2.9615605199     0.4935562909    -0.2403144677
    7      H      -4.0915936589     1.6084091258     1.1263004769
    8      H      -4.1598910742     2.0315521079    -0.5806431926
    9      H      -2.7852830150    -0.2689669774     0.3086200601
 ----------------------------------------------------------------

    6    -154.9797562039      9.61E-05 Convergence criterion met
    6    -155.0483938987      5.84E-06 Convergence criterion met
 Total energy in the final basis set = -155.04839390

                    Orbital Energies (a.u.)
 --------------------------------------------------------------

 Alpha MOs
 -- Occupied --
-19.2436 -10.3287 -10.2741  -1.1213  -0.8500  -0.7255  -0.5965  -0.5450
 -0.5212  -0.4656  -0.4583  -0.4113  -0.3595

                    Cartesian Multipole Moments
 -----------------------------------------------------------------
    Charge (ESU x 10^10)
                 0.0000
    Dipole Moment (Debye)
         X      -1.1193      Y      -0.4507      Z       1.1911
       Tot       1.6955
    Quadrupole Moments (Debye-Ang)
        XX     -12.4151     XY      -0.5804     YY     -18.7604
        XZ      -3.2130     YZ      -0.4389     ZZ     -20.0733

 Total job time:  10.93s(wall), 56.17s(cpu)
        *  Thank you very much for using Q-Chem.  Have a nice day.  *
