 Q-Chem 5.3 (devel), Q-Chem, Inc., Pleasanton, CA (2020)
 Q-Chem 5.3.0 for Intel X86 EM64T Linux

User input:
--------------------------------------------------------------
$rem
   JOBTYPE  sp
   EXCHANGE   omegaB97X-D
   BASIS   6-311+G(2df,2pd)
   UNRESTRICTED   False
   max_scf_cycles   250
   geom_opt_max_cycles   1500
   basis2 6-31G*
   scf_algorithm rca_diis
   SYM_IGNORE  TRUE
   print_input   true
   geom_opt_dmax   80
   pop_mulliken false
   XC_GRID 000075000302
$end

$molecule
0 1
C       -5.3741855271     0.3080259948     0.0377360050
C       -4.1287034847     1.1700807126     0.1288147034
H       -5.4871101215     -0.0949960719     -0.9685775032
H       -6.2638535637     0.8910932285     0.2812247055
H       -5.3223945993     -0.5291041291     0.7379728512
O       -2.9494568084     0.4680532333     -0.2245469335
H       -4.0344998420     1.5959937165     1.1342295349
H       -4.1952117721     2.0053673221     -0.5700934853
H       -2.8473942811     -0.1972940068     0.3135501221
$end
--------------------------------------------------------------

             Standard Nuclear Orientation (Angstroms)
    I     Atom           X                Y                Z
 ----------------------------------------------------------------
    1      C      -5.3741855271     0.3080259948     0.0377360050
    2      C      -4.1287034847     1.1700807126     0.1288147034
    3      H      -5.4871101215    -0.0949960719    -0.9685775032
    4      H      -6.2638535637     0.8910932285     0.2812247055
    5      H      -5.3223945993    -0.5291041291     0.7379728512
    6      O      -2.9494568084     0.4680532333    -0.2245469335
    7      H      -4.0344998420     1.5959937165     1.1342295349
    8      H      -4.1952117721     2.0053673221    -0.5700934853
    9      H      -2.8473942811    -0.1972940068     0.3135501221
 ----------------------------------------------------------------

    6    -154.9699911200      6.29E-05 Convergence criterion met
    6    -155.0396998659      5.23E-06 Convergence criterion met
 Total energy in the final basis set = -155.03969987

                    Orbital Energies (a.u.)
 --------------------------------------------------------------

 Alpha MOs
 -- Occupied --
-19.2373 -10.3286 -10.2751  -1.1468  -0.8546  -0.7306  -0.6038  -0.5477
 -0.5256  -0.4711  -0.4594  -0.4145  -0.3659

                    Cartesian Multipole Moments
 -----------------------------------------------------------------
    Charge (ESU x 10^10)
                 0.0000
    Dipole Moment (Debye)
         X      -1.2277      Y      -0.3386      Z       1.2007
       Tot       1.7503
    Quadrupole Moments (Debye-Ang)
        XX     -11.6430     XY      -0.8323     YY     -18.8807
        XZ      -3.1712     YZ      -0.2532     ZZ     -19.8461

 Total job time:  10.92s(wall), 56.14s(cpu)
        *  Thank you very much for using Q-Chem.  Have a nice day.  *
