 Q-Chem 5.3 (devel), Q-Chem, Inc., Pleasanton, CA (2020)
 Q-Chem 5.3.0 for Intel X86 EM64T Linux

User input:
--------------------------------------------------------------
$rem
   JOBTYPE  sp
   EXCHANGE   omegaB97X-D
   BASIS   6-311+G(2df,2pd)
   UNRESTRICTED   False
   max_scf_cycles   250
   geom_opt_max_cycles   1500
   basis2 6-31G*
   scf_algorithm rca_diis
   SYM_IGNORE  TRUE
   print_input   true
   geom_opt_dmax   80
   pop_mulliken false
   XC_GRID 000075000302
$end

$molecule
0 1
C       -5.3287407098     0.3129406285     0.0303897558
C       -4.1933259814     1.1824446573     0.1377512766
H       -5.5655787997     -0.0930586153     -0.9524020098
H       -6.2960969235     0.7474250810     0.2948178096
H       -5.3895538687     -0.5393578085     0.7139665474
O       -2.9507226998     0.5555051427     -0.2691744792
H       -3.9357976260     1.6137985031     1.1105196052
H       -4.0286361507     1.9971611537     -0.5651236073
H       -2.9143572403     -0.1596387426     0.3695651018
$end
--------------------------------------------------------------

             Standard Nuclear Orientation (Angstroms)
    I     Atom           X                Y                Z
 ----------------------------------------------------------------
    1      C      -5.3287407098     0.3129406285     0.0303897558
    2      C      -4.1933259814     1.1824446573     0.1377512766
    3      H      -5.5655787997    -0.0930586153    -0.9524020098
    4      H      -6.2960969235     0.7474250810     0.2948178096
    5      H      -5.3895538687    -0.5393578085     0.7139665474
    6      O      -2.9507226998     0.5555051427    -0.2691744792
    7      H      -3.9357976260     1.6137985031     1.1105196052
    8      H      -4.0286361507     1.9971611537    -0.5651236073
    9      H      -2.9143572403    -0.1596387426     0.3695651018
 ----------------------------------------------------------------

    7    -154.9576647951      1.25E-05 Convergence criterion met
    6    -155.0271915296      6.60E-06 Convergence criterion met
 Total energy in the final basis set = -155.02719153

                    Orbital Energies (a.u.)
 --------------------------------------------------------------

 Alpha MOs
 -- Occupied --
-19.2398 -10.3239 -10.2776  -1.1200  -0.8622  -0.7286  -0.5958  -0.5498
 -0.5240  -0.4805  -0.4375  -0.4171  -0.3627

                    Cartesian Multipole Moments
 -----------------------------------------------------------------
    Charge (ESU x 10^10)
                 0.0000
    Dipole Moment (Debye)
         X      -1.5640      Y      -0.4604      Z       1.3346
       Tot       2.1069
    Quadrupole Moments (Debye-Ang)
        XX      -8.5270     XY       0.4622     YY     -19.3160
        XZ      -3.6718     YZ      -0.1575     ZZ     -19.9199

 Total job time:  11.14s(wall), 57.49s(cpu)
        *  Thank you very much for using Q-Chem.  Have a nice day.  *
