 Q-Chem 5.3 (devel), Q-Chem, Inc., Pleasanton, CA (2020)
 Q-Chem 5.3.0 for Intel X86 EM64T Linux

User input:
--------------------------------------------------------------
$rem
   JOBTYPE  sp
   EXCHANGE   omegaB97X-D
   BASIS   6-311+G(2df,2pd)
   UNRESTRICTED   False
   max_scf_cycles   250
   geom_opt_max_cycles   1500
   basis2 6-31G*
   scf_algorithm rca_diis
   SYM_IGNORE  TRUE
   print_input   true
   geom_opt_dmax   80
   pop_mulliken false
   XC_GRID 000075000302
$end

$molecule
0 1
C       -5.3737574141     0.3153348625     0.0324558472
C       -4.1420706033     1.1990394454     0.1103683464
H       -5.4979269682     -0.0781262049     -0.9762412380
H       -6.2684200278     0.8797254211     0.2985228487
H       -5.2949183235     -0.5278535914     0.7212563498
O       -2.9605402702     0.5347235038     -0.2816513031
H       -4.0371666009     1.6140904589     1.1196899536
H       -4.2363640389     2.0378125982     -0.5744468569
H       -2.7916457531     -0.3575264936     0.4203560524
$end
--------------------------------------------------------------

             Standard Nuclear Orientation (Angstroms)
    I     Atom           X                Y                Z
 ----------------------------------------------------------------
    1      C      -5.3737574141     0.3153348625     0.0324558472
    2      C      -4.1420706033     1.1990394454     0.1103683464
    3      H      -5.4979269682    -0.0781262049    -0.9762412380
    4      H      -6.2684200278     0.8797254211     0.2985228487
    5      H      -5.2949183235    -0.5278535914     0.7212563498
    6      O      -2.9605402702     0.5347235038    -0.2816513031
    7      H      -4.0371666009     1.6140904589     1.1196899536
    8      H      -4.2363640389     2.0378125982    -0.5744468569
    9      H      -2.7916457531    -0.3575264936     0.4203560524
 ----------------------------------------------------------------

    7    -154.9614106621      1.28E-05 Convergence criterion met
    6    -155.0273365755      7.23E-06 Convergence criterion met
 Total energy in the final basis set = -155.02733658

                    Orbital Energies (a.u.)
 --------------------------------------------------------------

 Alpha MOs
 -- Occupied --
-19.2593 -10.3253 -10.2732  -1.1007  -0.8432  -0.7111  -0.5819  -0.5396
 -0.5187  -0.4673  -0.4565  -0.4069  -0.3575

                    Cartesian Multipole Moments
 -----------------------------------------------------------------
    Charge (ESU x 10^10)
                 0.0000
    Dipole Moment (Debye)
         X      -1.1070      Y      -0.5227      Z       1.3074
       Tot       1.7911
    Quadrupole Moments (Debye-Ang)
        XX     -12.6604     XY      -0.4201     YY     -18.9793
        XZ      -3.3847     YZ      -0.4057     ZZ     -20.0593

 Total job time:  11.05s(wall), 56.94s(cpu)
        *  Thank you very much for using Q-Chem.  Have a nice day.  *
