 Q-Chem 5.3 (devel), Q-Chem, Inc., Pleasanton, CA (2020)
 Q-Chem 5.3.0 for Intel X86 EM64T Linux

User input:
--------------------------------------------------------------
$rem
   JOBTYPE  sp
   EXCHANGE   omegaB97X-D
   BASIS   6-311+G(2df,2pd)
   UNRESTRICTED   False
   max_scf_cycles   250
   geom_opt_max_cycles   1500
   basis2 6-31G*
   scf_algorithm rca_diis
   SYM_IGNORE  TRUE
   print_input   true
   geom_opt_dmax   80
   pop_mulliken false
   XC_GRID 000075000302
$end

$molecule
0 1
C       -5.3754657617     0.3028032974     0.0678343942
C       -4.1330235661     1.1692050264     0.1486780272
H       -5.4470823226     -0.0220847760     -0.9709341055
H       -6.2658304129     0.8930806688     0.2895555608
H       -5.3758823317     -0.5828813952     0.7051783791
O       -2.9626293898     0.4827087031     -0.2512240261
H       -4.0035081859     1.6542311275     1.1219832978
H       -4.2482017924     1.9585368029     -0.5949702896
H       -2.7911862369     -0.2383794549     0.3542087623
$end
--------------------------------------------------------------

             Standard Nuclear Orientation (Angstroms)
    I     Atom           X                Y                Z
 ----------------------------------------------------------------
    1      C      -5.3754657617     0.3028032974     0.0678343942
    2      C      -4.1330235661     1.1692050264     0.1486780272
    3      H      -5.4470823226    -0.0220847760    -0.9709341055
    4      H      -6.2658304129     0.8930806688     0.2895555608
    5      H      -5.3758823317    -0.5828813952     0.7051783791
    6      O      -2.9626293898     0.4827087031    -0.2512240261
    7      H      -4.0035081859     1.6542311275     1.1219832978
    8      H      -4.2482017924     1.9585368029    -0.5949702896
    9      H      -2.7911862369    -0.2383794549     0.3542087623
 ----------------------------------------------------------------

    7    -154.9811922809      7.43E-06 Convergence criterion met
    6    -155.0494682572      5.63E-06 Convergence criterion met
 Total energy in the final basis set = -155.04946826

                    Orbital Energies (a.u.)
 --------------------------------------------------------------

 Alpha MOs
 -- Occupied --
-19.2462 -10.3272 -10.2735  -1.1259  -0.8502  -0.7224  -0.5963  -0.5451
 -0.5254  -0.4652  -0.4584  -0.4103  -0.3637

                    Cartesian Multipole Moments
 -----------------------------------------------------------------
    Charge (ESU x 10^10)
                 0.0000
    Dipole Moment (Debye)
         X      -1.0838      Y      -0.3895      Z       1.2646
       Tot       1.7104
    Quadrupole Moments (Debye-Ang)
        XX     -12.6133     XY      -0.7244     YY     -18.9773
        XZ      -3.2684     YZ      -0.3073     ZZ     -19.9465

 Total job time:  11.12s(wall), 57.26s(cpu)
        *  Thank you very much for using Q-Chem.  Have a nice day.  *
