 Q-Chem 5.3 (devel), Q-Chem, Inc., Pleasanton, CA (2020)
 Q-Chem 5.3.0 for Intel X86 EM64T Linux

User input:
--------------------------------------------------------------
$rem
   JOBTYPE  sp
   EXCHANGE   omegaB97X-D
   BASIS   6-311+G(2df,2pd)
   UNRESTRICTED   False
   max_scf_cycles   250
   geom_opt_max_cycles   1500
   basis2 6-31G*
   scf_algorithm rca_diis
   SYM_IGNORE  TRUE
   print_input   true
   geom_opt_dmax   80
   pop_mulliken false
   XC_GRID 000075000302
$end

$molecule
0 1
C       -5.2538112246     0.4261683319     0.0376413732
C       -4.0312690465     1.2164251451     0.1042844334
H       -5.7058756223     -0.1193675879     -0.8033719798
H       -6.3077090408     0.7196212314     0.1391045203
H       -5.5186474137     -0.4600343185     0.6304403078
O       -2.8810869352     0.4676232315     -0.1647469065
H       -3.9713885897     1.6087032090     1.1211481993
H       -4.3315606940     2.0559644853     -0.5230070575
H       -2.6014614331     -0.2978837278     0.3288171099
$end
--------------------------------------------------------------

             Standard Nuclear Orientation (Angstroms)
    I     Atom           X                Y                Z
 ----------------------------------------------------------------
    1      C      -5.2538112246     0.4261683319     0.0376413732
    2      C      -4.0312690465     1.2164251451     0.1042844334
    3      H      -5.7058756223    -0.1193675879    -0.8033719798
    4      H      -6.3077090408     0.7196212314     0.1391045203
    5      H      -5.5186474137    -0.4600343185     0.6304403078
    6      O      -2.8810869352     0.4676232315    -0.1647469065
    7      H      -3.9713885897     1.6087032090     1.1211481993
    8      H      -4.3315606940     2.0559644853    -0.5230070575
    9      H      -2.6014614331    -0.2978837278     0.3288171099
 ----------------------------------------------------------------

    6    -154.9077636173      7.77E-05 Convergence criterion met
    6    -154.9814796200      7.17E-06 Convergence criterion met
 Total energy in the final basis set = -154.98147962

                    Orbital Energies (a.u.)
 --------------------------------------------------------------

 Alpha MOs
 -- Occupied --
-19.2449 -10.3404 -10.2674  -1.1267  -0.8661  -0.7518  -0.6211  -0.5573
 -0.5450  -0.4366  -0.4230  -0.3863  -0.3669

                    Cartesian Multipole Moments
 -----------------------------------------------------------------
    Charge (ESU x 10^10)
                 0.0000
    Dipole Moment (Debye)
         X      -1.0724      Y      -0.5308      Z       1.0530
       Tot       1.5939
    Quadrupole Moments (Debye-Ang)
        XX     -11.1368     XY       0.0741     YY     -18.9106
        XZ      -1.9981     YZ      -0.4044     ZZ     -20.8528

 Total job time:  10.70s(wall), 54.99s(cpu)
        *  Thank you very much for using Q-Chem.  Have a nice day.  *
