 Q-Chem 5.3 (devel), Q-Chem, Inc., Pleasanton, CA (2020)
 Q-Chem 5.3.0 for Intel X86 EM64T Linux

User input:
--------------------------------------------------------------
$rem
   JOBTYPE  sp
   EXCHANGE   omegaB97X-D
   BASIS   6-311+G(2df,2pd)
   UNRESTRICTED   False
   max_scf_cycles   250
   geom_opt_max_cycles   1500
   basis2 6-31G*
   scf_algorithm rca_diis
   SYM_IGNORE  TRUE
   print_input   true
   geom_opt_dmax   80
   pop_mulliken false
   XC_GRID 000075000302
$end

$molecule
0 1
C       -5.3236142633     0.3263901649     0.0722223345
C       -4.1935770050     1.1705768215     0.0843029669
H       -5.3867331671     -0.0296822765     -0.9550998812
H       -6.2137641739     0.9270753000     0.2627888323
H       -5.2921678171     -0.5234728698     0.7519622169
O       -2.8772949979     0.4329677032     -0.2831322883
H       -4.0242901593     1.5294189024     1.1001674715
H       -4.3633070381     2.0302496060     -0.5579359223
H       -2.9280613782     -0.2463033517     0.3950342698
$end
--------------------------------------------------------------

             Standard Nuclear Orientation (Angstroms)
    I     Atom           X                Y                Z
 ----------------------------------------------------------------
    1      C      -5.3236142633     0.3263901649     0.0722223345
    2      C      -4.1935770050     1.1705768215     0.0843029669
    3      H      -5.3867331671    -0.0296822765    -0.9550998812
    4      H      -6.2137641739     0.9270753000     0.2627888323
    5      H      -5.2921678171    -0.5234728698     0.7519622169
    6      O      -2.8772949979     0.4329677032    -0.2831322883
    7      H      -4.0242901593     1.5294189024     1.1001674715
    8      H      -4.3633070381     2.0302496060    -0.5579359223
    9      H      -2.9280613782    -0.2463033517     0.3950342698
 ----------------------------------------------------------------

    7    -154.9604437065      1.28E-05 Convergence criterion met
    6    -155.0300156016      6.86E-06 Convergence criterion met
 Total energy in the final basis set = -155.03001560

                    Orbital Energies (a.u.)
 --------------------------------------------------------------

 Alpha MOs
 -- Occupied --
-19.2451 -10.3288 -10.2750  -1.0945  -0.8836  -0.7091  -0.5855  -0.5502
 -0.5332  -0.4705  -0.4508  -0.4217  -0.3644

                    Cartesian Multipole Moments
 -----------------------------------------------------------------
    Charge (ESU x 10^10)
                 0.0000
    Dipole Moment (Debye)
         X      -1.9367      Y      -0.1185      Z       1.3672
       Tot       2.3736
    Quadrupole Moments (Debye-Ang)
        XX      -6.6401     XY      -2.1270     YY     -18.5754
        XZ      -3.7252     YZ      -0.5868     ZZ     -19.8059

 Total job time:  11.25s(wall), 58.02s(cpu)
        *  Thank you very much for using Q-Chem.  Have a nice day.  *
