 Q-Chem 5.3 (devel), Q-Chem, Inc., Pleasanton, CA (2020)
 Q-Chem 5.3.0 for Intel X86 EM64T Linux

User input:
--------------------------------------------------------------
$rem
   JOBTYPE  sp
   EXCHANGE   omegaB97X-D
   BASIS   6-311+G(2df,2pd)
   UNRESTRICTED   False
   max_scf_cycles   250
   geom_opt_max_cycles   1500
   basis2 6-31G*
   scf_algorithm rca_diis
   SYM_IGNORE  TRUE
   print_input   true
   geom_opt_dmax   80
   pop_mulliken false
   XC_GRID 000075000302
$end

$molecule
0 1
C       -5.3744913546     0.2716237233     0.1570747778
C       -4.1373674395     1.1424635499     0.2291540345
H       -5.3029355610     0.1764013667     -0.9298087568
H       -6.2506513780     0.9082409628     0.2879695884
H       -5.5545548396     -0.7048375065     0.6014458939
O       -3.0040206596     0.4597205791     -0.2666610830
H       -3.9227415685     1.7960475283     1.0776189510
H       -4.3679828140     1.7653619865     -0.6389042006
H       -2.6880643850     -0.1978021902     0.3524207949
$end
--------------------------------------------------------------

             Standard Nuclear Orientation (Angstroms)
    I     Atom           X                Y                Z
 ----------------------------------------------------------------
    1      C      -5.3744913546     0.2716237233     0.1570747778
    2      C      -4.1373674395     1.1424635499     0.2291540345
    3      H      -5.3029355610     0.1764013667    -0.9298087568
    4      H      -6.2506513780     0.9082409628     0.2879695884
    5      H      -5.5545548396    -0.7048375065     0.6014458939
    6      O      -3.0040206596     0.4597205791    -0.2666610830
    7      H      -3.9227415685     1.7960475283     1.0776189510
    8      H      -4.3679828140     1.7653619865    -0.6389042006
    9      H      -2.6880643850    -0.1978021902     0.3524207949
 ----------------------------------------------------------------

    6    -154.9565548519      9.87E-05 Convergence criterion met
    6    -155.0257312635      5.81E-06 Convergence criterion met
 Total energy in the final basis set = -155.02573126

                    Orbital Energies (a.u.)
 --------------------------------------------------------------

 Alpha MOs
 -- Occupied --
-19.2459 -10.3295 -10.2724  -1.1265  -0.8579  -0.7201  -0.5989  -0.5526
 -0.5270  -0.4594  -0.4477  -0.4006  -0.3664

                    Cartesian Multipole Moments
 -----------------------------------------------------------------
    Charge (ESU x 10^10)
                -0.0000
    Dipole Moment (Debye)
         X      -0.7910      Y      -0.2882      Z       1.2771
       Tot       1.5296
    Quadrupole Moments (Debye-Ang)
        XX     -14.2815     XY      -0.8986     YY     -19.0221
        XZ      -3.1007     YZ      -0.2353     ZZ     -20.1620

 Total job time:  10.91s(wall), 56.21s(cpu)
        *  Thank you very much for using Q-Chem.  Have a nice day.  *
