 Q-Chem 5.3 (devel), Q-Chem, Inc., Pleasanton, CA (2020)
 Q-Chem 5.3.0 for Intel X86 EM64T Linux

User input:
--------------------------------------------------------------
$rem
   JOBTYPE  sp
   EXCHANGE   omegaB97X-D
   BASIS   6-311+G(2df,2pd)
   UNRESTRICTED   False
   max_scf_cycles   250
   geom_opt_max_cycles   1500
   basis2 6-31G*
   scf_algorithm rca_diis
   SYM_IGNORE  TRUE
   print_input   true
   geom_opt_dmax   80
   pop_mulliken false
   XC_GRID 000075000302
$end

$molecule
0 1
C       -5.4370168912     0.4819653604     0.0371774055
C       -4.2547320493     1.1050514226     0.1879338270
H       -5.3895160865     -0.0166072899     -0.9285308041
H       -6.4267536408     0.8292500647     0.3068359496
H       -5.0945804206     -0.3119556910     0.7077326360
O       -3.0441501181     0.4221842061     -0.1819098981
H       -4.2485392719     1.6155624908     1.1537316419
H       -4.0921755149     1.8409640206     -0.5969631106
H       -2.6153460066     -0.3491945843     0.1843023528
$end
--------------------------------------------------------------

             Standard Nuclear Orientation (Angstroms)
    I     Atom           X                Y                Z
 ----------------------------------------------------------------
    1      C      -5.4370168912     0.4819653604     0.0371774055
    2      C      -4.2547320493     1.1050514226     0.1879338270
    3      H      -5.3895160865    -0.0166072899    -0.9285308041
    4      H      -6.4267536408     0.8292500647     0.3068359496
    5      H      -5.0945804206    -0.3119556910     0.7077326360
    6      O      -3.0441501181     0.4221842061    -0.1819098981
    7      H      -4.2485392719     1.6155624908     1.1537316419
    8      H      -4.0921755149     1.8409640206    -0.5969631106
    9      H      -2.6153460066    -0.3491945843     0.1843023528
 ----------------------------------------------------------------

    7    -154.9111581463      1.78E-05 Convergence criterion met
    6    -154.9839795065      6.77E-06 Convergence criterion met
 Total energy in the final basis set = -154.98397951

                    Orbital Energies (a.u.)
 --------------------------------------------------------------

 Alpha MOs
 -- Occupied --
-19.2398 -10.3206 -10.2622  -1.1128  -0.9005  -0.7230  -0.6118  -0.5695
 -0.5459  -0.4565  -0.4283  -0.3777  -0.3698

                    Cartesian Multipole Moments
 -----------------------------------------------------------------
    Charge (ESU x 10^10)
                 0.0000
    Dipole Moment (Debye)
         X      -0.9606      Y      -0.6139      Z       1.0770
       Tot       1.5683
    Quadrupole Moments (Debye-Ang)
        XX     -11.5552     XY      -0.7061     YY     -19.8351
        XZ      -3.3690     YZ       0.2329     ZZ     -20.1508

 Total job time:  11.39s(wall), 58.52s(cpu)
        *  Thank you very much for using Q-Chem.  Have a nice day.  *
