 Q-Chem 5.3 (devel), Q-Chem, Inc., Pleasanton, CA (2020)
 Q-Chem 5.3.0 for Intel X86 EM64T Linux

User input:
--------------------------------------------------------------
$rem
   JOBTYPE  sp
   EXCHANGE   omegaB97X-D
   BASIS   6-311+G(2df,2pd)
   UNRESTRICTED   False
   max_scf_cycles   250
   geom_opt_max_cycles   1500
   basis2 6-31G*
   scf_algorithm rca_diis
   SYM_IGNORE  TRUE
   print_input   true
   geom_opt_dmax   80
   pop_mulliken false
   XC_GRID 000075000302
$end

$molecule
0 1
C       -5.4332810225     0.3160493281     0.0440124419
C       -4.0761479334     1.1636086802     0.1013569214
H       -5.4107190148     -0.0762385884     -0.9730362644
H       -6.2172585738     1.0375395639     0.2703124455
H       -5.2420551153     -0.4947908417     0.7473924924
O       -2.9448557552     0.4399570925     -0.2169846048
H       -4.1514636543     1.5663503223     1.1193515486
H       -4.3947650049     1.9850846666     -0.5419199660
H       -2.7322639258     -0.3203402235     0.3198249854
$end
--------------------------------------------------------------

             Standard Nuclear Orientation (Angstroms)
    I     Atom           X                Y                Z
 ----------------------------------------------------------------
    1      C      -5.4332810225     0.3160493281     0.0440124419
    2      C      -4.0761479334     1.1636086802     0.1013569214
    3      H      -5.4107190148    -0.0762385884    -0.9730362644
    4      H      -6.2172585738     1.0375395639     0.2703124455
    5      H      -5.2420551153    -0.4947908417     0.7473924924
    6      O      -2.9448557552     0.4399570925    -0.2169846048
    7      H      -4.1514636543     1.5663503223     1.1193515486
    8      H      -4.3947650049     1.9850846666    -0.5419199660
    9      H      -2.7322639258    -0.3203402235     0.3198249854
 ----------------------------------------------------------------

    6    -154.9582472550      9.64E-05 Convergence criterion met
    6    -155.0276932923      5.28E-06 Convergence criterion met
 Total energy in the final basis set = -155.02769329

                    Orbital Energies (a.u.)
 --------------------------------------------------------------

 Alpha MOs
 -- Occupied --
-19.2554 -10.3303 -10.2726  -1.1375  -0.8457  -0.7211  -0.6114  -0.5563
 -0.5163  -0.4683  -0.4607  -0.3978  -0.3518

                    Cartesian Multipole Moments
 -----------------------------------------------------------------
    Charge (ESU x 10^10)
                 0.0000
    Dipole Moment (Debye)
         X      -0.7290      Y      -0.4502      Z       1.1331
       Tot       1.4206
    Quadrupole Moments (Debye-Ang)
        XX     -15.8574     XY      -1.4870     YY     -19.0145
        XZ      -2.8774     YZ      -0.3791     ZZ     -20.1822

 Total job time:  10.90s(wall), 56.20s(cpu)
        *  Thank you very much for using Q-Chem.  Have a nice day.  *
