 Q-Chem 5.3 (devel), Q-Chem, Inc., Pleasanton, CA (2020)
 Q-Chem 5.3.0 for Intel X86 EM64T Linux

User input:
--------------------------------------------------------------
$rem
   JOBTYPE  sp
   EXCHANGE   omegaB97X-D
   BASIS   6-311+G(2df,2pd)
   UNRESTRICTED   False
   max_scf_cycles   250
   geom_opt_max_cycles   1500
   basis2 6-31G*
   scf_algorithm rca_diis
   SYM_IGNORE  TRUE
   print_input   true
   geom_opt_dmax   80
   pop_mulliken false
   XC_GRID 000075000302
$end

$molecule
0 1
C       -5.4390683088     0.2905250479     -0.0140603760
C       -4.0523255527     1.1822778840     0.1815487863
H       -5.6271229101     -0.1646459132     -0.9874219395
H       -6.3298080761     0.8322364159     0.3096438743
H       -5.3412119864     -0.5288528739     0.7087988342
O       -3.0511076150     0.5590830992     -0.1724989162
H       -4.0423358443     1.6960139104     1.1580309626
H       -4.0007137797     1.9704704451     -0.5755984377
H       -2.7191159268     -0.2198880155     0.2618672120
$end
--------------------------------------------------------------

             Standard Nuclear Orientation (Angstroms)
    I     Atom           X                Y                Z
 ----------------------------------------------------------------
    1      C      -5.4390683088     0.2905250479    -0.0140603760
    2      C      -4.0523255527     1.1822778840     0.1815487863
    3      H      -5.6271229101    -0.1646459132    -0.9874219395
    4      H      -6.3298080761     0.8322364159     0.3096438743
    5      H      -5.3412119864    -0.5288528739     0.7087988342
    6      O      -3.0511076150     0.5590830992    -0.1724989162
    7      H      -4.0423358443     1.6960139104     1.1580309626
    8      H      -4.0007137797     1.9704704451    -0.5755984377
    9      H      -2.7191159268    -0.2198880155     0.2618672120
 ----------------------------------------------------------------

    6    -154.9340870172      6.75E-05 Convergence criterion met
    6    -155.0041304301      5.69E-06 Convergence criterion met
 Total energy in the final basis set = -155.00413043

                    Orbital Energies (a.u.)
 --------------------------------------------------------------

 Alpha MOs
 -- Occupied --
-19.2499 -10.3259 -10.2679  -1.1945  -0.8205  -0.7549  -0.6176  -0.5590
 -0.5306  -0.4712  -0.4578  -0.3761  -0.3468

                    Cartesian Multipole Moments
 -----------------------------------------------------------------
    Charge (ESU x 10^10)
                 0.0000
    Dipole Moment (Debye)
         X       0.0494      Y      -0.7886      Z       0.9510
       Tot       1.2365
    Quadrupole Moments (Debye-Ang)
        XX     -20.9115     XY       1.4951     YY     -19.8267
        XZ      -2.3999     YZ       0.0918     ZZ     -20.1203

 Total job time:  10.75s(wall), 55.29s(cpu)
        *  Thank you very much for using Q-Chem.  Have a nice day.  *
