 Q-Chem 5.3 (devel), Q-Chem, Inc., Pleasanton, CA (2020)
 Q-Chem 5.3.0 for Intel X86 EM64T Linux

User input:
--------------------------------------------------------------
$rem
   JOBTYPE  sp
   EXCHANGE   omegaB97X-D
   BASIS   6-311+G(2df,2pd)
   UNRESTRICTED   False
   max_scf_cycles   250
   geom_opt_max_cycles   1500
   basis2 6-31G*
   scf_algorithm rca_diis
   SYM_IGNORE  TRUE
   print_input   true
   geom_opt_dmax   80
   pop_mulliken false
   XC_GRID 000075000302
$end

$molecule
0 1
C       -5.3418150544     0.2988789487     0.0275013933
C       -4.1401252065     1.1561760029     0.1181523641
H       -5.5039943594     -0.0905103413     -0.9766974274
H       -6.1859949615     0.9383067319     0.2925685461
H       -5.3216941264     -0.5303030324     0.7374000293
O       -2.9683204582     0.5054542120     -0.2364826132
H       -4.0738301969     1.5803272731     1.1282428594
H       -4.2406815394     1.9959031838     -0.5700222131
H       -2.8263540972     -0.2370129788     0.3496470617
$end
--------------------------------------------------------------

             Standard Nuclear Orientation (Angstroms)
    I     Atom           X                Y                Z
 ----------------------------------------------------------------
    1      C      -5.3418150544     0.2988789487     0.0275013933
    2      C      -4.1401252065     1.1561760029     0.1181523641
    3      H      -5.5039943594    -0.0905103413    -0.9766974274
    4      H      -6.1859949615     0.9383067319     0.2925685461
    5      H      -5.3216941264    -0.5303030324     0.7374000293
    6      O      -2.9683204582     0.5054542120    -0.2364826132
    7      H      -4.0738301969     1.5803272731     1.1282428594
    8      H      -4.2406815394     1.9959031838    -0.5700222131
    9      H      -2.8263540972    -0.2370129788     0.3496470617
 ----------------------------------------------------------------

    6    -154.9801238903      9.25E-05 Convergence criterion met
    6    -155.0487901285      5.80E-06 Convergence criterion met
 Total energy in the final basis set = -155.04879013

                    Orbital Energies (a.u.)
 --------------------------------------------------------------

 Alpha MOs
 -- Occupied --
-19.2451 -10.3219 -10.2702  -1.1349  -0.8570  -0.7216  -0.6020  -0.5514
 -0.5266  -0.4731  -0.4569  -0.4080  -0.3612

                    Cartesian Multipole Moments
 -----------------------------------------------------------------
    Charge (ESU x 10^10)
                -0.0000
    Dipole Moment (Debye)
         X      -1.1040      Y      -0.4710      Z       1.2139
       Tot       1.7071
    Quadrupole Moments (Debye-Ang)
        XX     -12.6902     XY      -0.4568     YY     -19.0519
        XZ      -3.1433     YZ      -0.3081     ZZ     -19.8832

 Total job time:  10.99s(wall), 56.48s(cpu)
        *  Thank you very much for using Q-Chem.  Have a nice day.  *
