 Q-Chem 5.3 (devel), Q-Chem, Inc., Pleasanton, CA (2020)
 Q-Chem 5.3.0 for Intel X86 EM64T Linux

User input:
--------------------------------------------------------------
$rem
   JOBTYPE  sp
   EXCHANGE   omegaB97X-D
   BASIS   6-311+G(2df,2pd)
   UNRESTRICTED   False
   max_scf_cycles   250
   geom_opt_max_cycles   1500
   basis2 6-31G*
   scf_algorithm rca_diis
   SYM_IGNORE  TRUE
   print_input   true
   geom_opt_dmax   80
   pop_mulliken false
   XC_GRID 000075000302
$end

$molecule
0 1
C       -5.4185518516     0.2658054818     0.0047195913
C       -4.2216568441     1.1885718481     0.1255240609
H       -5.5035561691     -0.0872173590     -1.0212182430
H       -6.2596713930     0.9258882679     0.2238791680
H       -5.3234866599     -0.5009173671     0.7687077018
O       -2.9977052999     0.4782195368     -0.1377386691
H       -3.8494431324     1.5675844272     1.0780768231
H       -4.3322946626     2.0532236098     -0.5349362444
H       -2.6964439873     -0.2739384454     0.3632958115
$end
--------------------------------------------------------------

             Standard Nuclear Orientation (Angstroms)
    I     Atom           X                Y                Z
 ----------------------------------------------------------------
    1      C      -5.4185518516     0.2658054818     0.0047195913
    2      C      -4.2216568441     1.1885718481     0.1255240609
    3      H      -5.5035561691    -0.0872173590    -1.0212182430
    4      H      -6.2596713930     0.9258882679     0.2238791680
    5      H      -5.3234866599    -0.5009173671     0.7687077018
    6      O      -2.9977052999     0.4782195368    -0.1377386691
    7      H      -3.8494431324     1.5675844272     1.0780768231
    8      H      -4.3322946626     2.0532236098    -0.5349362444
    9      H      -2.6964439873    -0.2739384454     0.3632958115
 ----------------------------------------------------------------

    6    -154.9543539718      6.79E-05 Convergence criterion met
    6    -155.0257537896      7.10E-06 Convergence criterion met
 Total energy in the final basis set = -155.02575379

                    Orbital Energies (a.u.)
 --------------------------------------------------------------

 Alpha MOs
 -- Occupied --
-19.2279 -10.3299 -10.2769  -1.1066  -0.8533  -0.7279  -0.5801  -0.5609
 -0.5134  -0.4791  -0.4620  -0.3813  -0.3496

                    Cartesian Multipole Moments
 -----------------------------------------------------------------
    Charge (ESU x 10^10)
                 0.0000
    Dipole Moment (Debye)
         X      -1.0689      Y      -0.3805      Z       1.0924
       Tot       1.5750
    Quadrupole Moments (Debye-Ang)
        XX     -12.4773     XY      -1.0905     YY     -18.7172
        XZ      -2.2194     YZ      -0.4909     ZZ     -19.8474

 Total job time:  10.87s(wall), 55.86s(cpu)
        *  Thank you very much for using Q-Chem.  Have a nice day.  *
