 Q-Chem 5.3 (devel), Q-Chem, Inc., Pleasanton, CA (2020)
 Q-Chem 5.3.0 for Intel X86 EM64T Linux

User input:
--------------------------------------------------------------
$rem
   JOBTYPE  sp
   EXCHANGE   omegaB97X-D
   BASIS   6-311+G(2df,2pd)
   UNRESTRICTED   False
   max_scf_cycles   250
   geom_opt_max_cycles   1500
   basis2 6-31G*
   scf_algorithm rca_diis
   SYM_IGNORE  TRUE
   print_input   true
   geom_opt_dmax   80
   pop_mulliken false
   XC_GRID 000075000302
$end

$molecule
0 1
C       -5.3152275901     0.1675430274     0.0526248474
C       -4.0469219250     1.2317384871     0.0739467361
H       -5.5475882532     -0.1359681823     -0.9697210031
H       -6.0958048940     0.9147043138     0.2449457632
H       -5.4878055532     -0.6729815634     0.7260518459
O       -2.9034863216     0.5111525706     -0.2778887617
H       -3.8567602129     1.5899643512     1.0953943788
H       -4.2961841395     2.1138083996     -0.5177754896
H       -3.0530311104     -0.1027414039     0.4427316833
$end
--------------------------------------------------------------

             Standard Nuclear Orientation (Angstroms)
    I     Atom           X                Y                Z
 ----------------------------------------------------------------
    1      C      -5.3152275901     0.1675430274     0.0526248474
    2      C      -4.0469219250     1.2317384871     0.0739467361
    3      H      -5.5475882532    -0.1359681823    -0.9697210031
    4      H      -6.0958048940     0.9147043138     0.2449457632
    5      H      -5.4878055532    -0.6729815634     0.7260518459
    6      O      -2.9034863216     0.5111525706    -0.2778887617
    7      H      -3.8567602129     1.5899643512     1.0953943788
    8      H      -4.2961841395     2.1138083996    -0.5177754896
    9      H      -3.0530311104    -0.1027414039     0.4427316833
 ----------------------------------------------------------------

    6    -154.9473371977      7.26E-05 Convergence criterion met
    6    -155.0154434527      5.95E-06 Convergence criterion met
 Total energy in the final basis set = -155.01544345

                    Orbital Energies (a.u.)
 --------------------------------------------------------------

 Alpha MOs
 -- Occupied --
-19.2479 -10.3443 -10.2825  -1.1448  -0.8278  -0.7245  -0.5970  -0.5400
 -0.5245  -0.4704  -0.4694  -0.4178  -0.3494

                    Cartesian Multipole Moments
 -----------------------------------------------------------------
    Charge (ESU x 10^10)
                -0.0000
    Dipole Moment (Debye)
         X      -1.4318      Y      -0.0449      Z       1.2843
       Tot       1.9240
    Quadrupole Moments (Debye-Ang)
        XX     -11.2738     XY      -1.2425     YY     -18.3128
        XZ      -3.2232     YZ      -0.5532     ZZ     -19.9277

 Total job time:  10.93s(wall), 56.13s(cpu)
        *  Thank you very much for using Q-Chem.  Have a nice day.  *
