 Q-Chem 5.3 (devel), Q-Chem, Inc., Pleasanton, CA (2020)
 Q-Chem 5.3.0 for Intel X86 EM64T Linux

User input:
--------------------------------------------------------------
$rem
   JOBTYPE  sp
   EXCHANGE   omegaB97X-D
   BASIS   6-311+G(2df,2pd)
   UNRESTRICTED   False
   max_scf_cycles   250
   geom_opt_max_cycles   1500
   basis2 6-31G*
   scf_algorithm rca_diis
   SYM_IGNORE  TRUE
   print_input   true
   geom_opt_dmax   80
   pop_mulliken false
   XC_GRID 000075000302
$end

$molecule
0 1
C       -5.4039126940     0.3976067516     0.1434301446
C       -4.1121338726     1.1261820112     0.0087182668
H       -5.2368111746     -0.0056141547     -0.8634865357
H       -6.4072066737     0.7953848701     0.2218775564
H       -5.2628482651     -0.5223026892     0.7163017737
O       -3.0441630591     0.5343018008     -0.2276191987
H       -3.8264411392     1.4279080805     1.0247224249
H       -4.2573055691     2.0459017449     -0.5582093632
H       -3.0519875525     -0.1821484152     0.4045749315
$end
--------------------------------------------------------------

             Standard Nuclear Orientation (Angstroms)
    I     Atom           X                Y                Z
 ----------------------------------------------------------------
    1      C      -5.4039126940     0.3976067516     0.1434301446
    2      C      -4.1121338726     1.1261820112     0.0087182668
    3      H      -5.2368111746    -0.0056141547    -0.8634865357
    4      H      -6.4072066737     0.7953848701     0.2218775564
    5      H      -5.2628482651    -0.5223026892     0.7163017737
    6      O      -3.0441630591     0.5343018008    -0.2276191987
    7      H      -3.8264411392     1.4279080805     1.0247224249
    8      H      -4.2573055691     2.0459017449    -0.5582093632
    9      H      -3.0519875525    -0.1821484152     0.4045749315
 ----------------------------------------------------------------

    6    -154.9048474608      8.91E-05 Convergence criterion met
    6    -154.9760523504      5.61E-06 Convergence criterion met
 Total energy in the final basis set = -154.97605235

                    Orbital Energies (a.u.)
 --------------------------------------------------------------

 Alpha MOs
 -- Occupied --
-19.2549 -10.3162 -10.2707  -1.2090  -0.8545  -0.7364  -0.6235  -0.5731
 -0.5693  -0.4804  -0.4473  -0.4135  -0.3248

                    Cartesian Multipole Moments
 -----------------------------------------------------------------
    Charge (ESU x 10^10)
                 0.0000
    Dipole Moment (Debye)
         X      -0.8749      Y      -0.6624      Z       0.9315
       Tot       1.4394
    Quadrupole Moments (Debye-Ang)
        XX     -13.8007     XY       0.6929     YY     -20.0592
        XZ      -2.2750     YZ      -1.2882     ZZ     -20.6561

 Total job time:  11.17s(wall), 57.38s(cpu)
        *  Thank you very much for using Q-Chem.  Have a nice day.  *
