 Q-Chem 5.3 (devel), Q-Chem, Inc., Pleasanton, CA (2020)
 Q-Chem 5.3.0 for Intel X86 EM64T Linux

User input:
--------------------------------------------------------------
$rem
   JOBTYPE  sp
   EXCHANGE   omegaB97X-D
   BASIS   6-311+G(2df,2pd)
   UNRESTRICTED   False
   max_scf_cycles   250
   geom_opt_max_cycles   1500
   basis2 6-31G*
   scf_algorithm rca_diis
   SYM_IGNORE  TRUE
   print_input   true
   geom_opt_dmax   80
   pop_mulliken false
   XC_GRID 000075000302
$end

$molecule
0 1
C       -5.3404155627     0.3208701496     0.0602897783
C       -4.1733592185     1.1743087750     0.0964353466
H       -5.4213652574     -0.0498022805     -0.9608646110
H       -6.2311177403     0.9139662743     0.2717098016
H       -5.2990189955     -0.5259175133     0.7452188900
O       -2.9025491324     0.4527202599     -0.2715702752
H       -4.0283485650     1.5537080151     1.1105525612
H       -4.3121471073     2.0274843401     -0.5635252356
H       -2.8944884207     -0.2501180203     0.3820637443
$end
--------------------------------------------------------------

             Standard Nuclear Orientation (Angstroms)
    I     Atom           X                Y                Z
 ----------------------------------------------------------------
    1      C      -5.3404155627     0.3208701496     0.0602897783
    2      C      -4.1733592185     1.1743087750     0.0964353466
    3      H      -5.4213652574    -0.0498022805    -0.9608646110
    4      H      -6.2311177403     0.9139662743     0.2717098016
    5      H      -5.2990189955    -0.5259175133     0.7452188900
    6      O      -2.9025491324     0.4527202599    -0.2715702752
    7      H      -4.0283485650     1.5537080151     1.1105525612
    8      H      -4.3121471073     2.0274843401    -0.5635252356
    9      H      -2.8944884207    -0.2501180203     0.3820637443
 ----------------------------------------------------------------

    7    -154.9725555610      1.06E-05 Convergence criterion met
    6    -155.0414911284      6.32E-06 Convergence criterion met
 Total energy in the final basis set = -155.04149113

                    Orbital Energies (a.u.)
 --------------------------------------------------------------

 Alpha MOs
 -- Occupied --
-19.2456 -10.3283 -10.2750  -1.1036  -0.8714  -0.7128  -0.5866  -0.5489
 -0.5297  -0.4688  -0.4535  -0.4212  -0.3645

                    Cartesian Multipole Moments
 -----------------------------------------------------------------
    Charge (ESU x 10^10)
                 0.0000
    Dipole Moment (Debye)
         X      -1.6871      Y      -0.2174      Z       1.3336
       Tot       2.1615
    Quadrupole Moments (Debye-Ang)
        XX      -8.4394     XY      -1.6400     YY     -18.6758
        XZ      -3.5874     YZ      -0.4955     ZZ     -19.8461

 Total job time:  11.10s(wall), 57.20s(cpu)
        *  Thank you very much for using Q-Chem.  Have a nice day.  *
