 Q-Chem 5.3 (devel), Q-Chem, Inc., Pleasanton, CA (2020)
 Q-Chem 5.3.0 for Intel X86 EM64T Linux

User input:
--------------------------------------------------------------
$rem
   JOBTYPE  sp
   EXCHANGE   omegaB97X-D
   BASIS   6-311+G(2df,2pd)
   UNRESTRICTED   False
   max_scf_cycles   250
   geom_opt_max_cycles   1500
   basis2 6-31G*
   scf_algorithm rca_diis
   SYM_IGNORE  TRUE
   print_input   true
   geom_opt_dmax   80
   pop_mulliken false
   XC_GRID 000075000302
$end

$molecule
0 1
C       -5.3103996863     0.2881800441     0.0193031136
C       -4.1475776120     1.1327290919     0.1137327273
H       -5.5165739977     -0.0898424471     -0.9804358324
H       -6.1031921074     0.9863535163     0.2970543770
H       -5.3297993125     -0.5294512385     0.7416840459
O       -2.9852943442     0.5200306481     -0.2289805569
H       -4.1131304093     1.5578799516     1.1265527307
H       -4.2729761313     1.9747939959     -0.5684310297
H       -2.8238663993     -0.2234535624     0.3498304246
$end
--------------------------------------------------------------

             Standard Nuclear Orientation (Angstroms)
    I     Atom           X                Y                Z
 ----------------------------------------------------------------
    1      C      -5.3103996863     0.2881800441     0.0193031136
    2      C      -4.1475776120     1.1327290919     0.1137327273
    3      H      -5.5165739977    -0.0898424471    -0.9804358324
    4      H      -6.1031921074     0.9863535163     0.2970543770
    5      H      -5.3297993125    -0.5294512385     0.7416840459
    6      O      -2.9852943442     0.5200306481    -0.2289805569
    7      H      -4.1131304093     1.5578799516     1.1265527307
    8      H      -4.2729761313     1.9747939959    -0.5684310297
    9      H      -2.8238663993    -0.2234535624     0.3498304246
 ----------------------------------------------------------------

    6    -154.9724960265      8.06E-05 Convergence criterion met
    6    -155.0417980549      6.05E-06 Convergence criterion met
 Total energy in the final basis set = -155.04179805

                    Orbital Energies (a.u.)
 --------------------------------------------------------------

 Alpha MOs
 -- Occupied --
-19.2440 -10.3168 -10.2659  -1.1445  -0.8655  -0.7206  -0.6083  -0.5585
 -0.5307  -0.4756  -0.4545  -0.4037  -0.3598

                    Cartesian Multipole Moments
 -----------------------------------------------------------------
    Charge (ESU x 10^10)
                -0.0000
    Dipole Moment (Debye)
         X      -1.0231      Y      -0.5273      Z       1.1820
       Tot       1.6498
    Quadrupole Moments (Debye-Ang)
        XX     -13.3611     XY      -0.2462     YY     -19.1650
        XZ      -3.0130     YZ      -0.3183     ZZ     -19.8429

 Total job time:  11.10s(wall), 56.92s(cpu)
        *  Thank you very much for using Q-Chem.  Have a nice day.  *
