 Q-Chem 5.3 (devel), Q-Chem, Inc., Pleasanton, CA (2020)
 Q-Chem 5.3.0 for Intel X86 EM64T Linux

User input:
--------------------------------------------------------------
$rem
   JOBTYPE  sp
   EXCHANGE   omegaB97X-D
   BASIS   6-311+G(2df,2pd)
   UNRESTRICTED   False
   max_scf_cycles   250
   geom_opt_max_cycles   1500
   basis2 6-31G*
   scf_algorithm rca_diis
   SYM_IGNORE  TRUE
   print_input   true
   geom_opt_dmax   80
   pop_mulliken false
   XC_GRID 000075000302
$end

$molecule
0 1
C       -5.3812841430     0.2931977112     0.0236391419
C       -4.1391459599     1.1407801224     0.0598132571
H       -5.5064638794     -0.1276678565     -0.9918309010
H       -6.2434086484     0.8578018707     0.2623817001
H       -5.3192313040     -0.5149445019     0.7136189998
O       -2.9615724301     0.4560720775     -0.2804301364
H       -3.9863929443     1.7439354654     1.4476462248
H       -4.2264390822     2.0455522729     -0.6875895724
H       -2.8388716085     -0.2775071616     0.3230612864
$end
--------------------------------------------------------------

             Standard Nuclear Orientation (Angstroms)
    I     Atom           X                Y                Z
 ----------------------------------------------------------------
    1      C      -5.3812841430     0.2931977112     0.0236391419
    2      C      -4.1391459599     1.1407801224     0.0598132571
    3      H      -5.5064638794    -0.1276678565    -0.9918309010
    4      H      -6.2434086484     0.8578018707     0.2623817001
    5      H      -5.3192313040    -0.5149445019     0.7136189998
    6      O      -2.9615724301     0.4560720775    -0.2804301364
    7      H      -3.9863929443     1.7439354654     1.4476462248
    8      H      -4.2264390822     2.0455522729    -0.6875895724
    9      H      -2.8388716085    -0.2775071616     0.3230612864
 ----------------------------------------------------------------

    6    -154.9286412880      9.79E-05 Convergence criterion met
    6    -154.9957702907      8.91E-06 Convergence criterion met
 Total energy in the final basis set = -154.99577029

                    Orbital Energies (a.u.)
 --------------------------------------------------------------

 Alpha MOs
 -- Occupied --
-19.2619 -10.3747 -10.2769  -1.1407  -0.8540  -0.7161  -0.5790  -0.5517
 -0.5270  -0.4695  -0.4647  -0.4077  -0.3495

                    Cartesian Multipole Moments
 -----------------------------------------------------------------
    Charge (ESU x 10^10)
                 0.0000
    Dipole Moment (Debye)
         X      -1.1738      Y      -0.9287      Z       0.6295
       Tot       1.6238
    Quadrupole Moments (Debye-Ang)
        XX     -11.6665     XY       1.4857     YY     -20.3224
        XZ      -0.7900     YZ      -1.4542     ZZ     -20.9075

 Total job time:  10.78s(wall), 55.34s(cpu)
        *  Thank you very much for using Q-Chem.  Have a nice day.  *
