 Q-Chem 5.3 (devel), Q-Chem, Inc., Pleasanton, CA (2020)
 Q-Chem 5.3.0 for Intel X86 EM64T Linux

User input:
--------------------------------------------------------------
$rem
   JOBTYPE  sp
   EXCHANGE   omegaB97X-D
   BASIS   6-311+G(2df,2pd)
   UNRESTRICTED   False
   max_scf_cycles   250
   geom_opt_max_cycles   1500
   basis2 6-31G*
   scf_algorithm rca_diis
   SYM_IGNORE  TRUE
   print_input   true
   geom_opt_dmax   80
   pop_mulliken false
   XC_GRID 000075000302
$end

$molecule
0 1
C       -5.3738967093     0.3179329636     0.0306750065
C       -4.1468365789     1.2086695538     0.1043919842
H       -5.5016970623     -0.0725754760     -0.9786916367
H       -6.2700383517     0.8762143123     0.3039217697
H       -5.2863455199     -0.5270066350     0.7157419470
O       -2.9649721445     0.5567774370     -0.2999410694
H       -4.0384672420     1.6203245294     1.1148808126
H       -4.2500460175     2.0483214601     -0.5758127816
H       -2.7705103739     -0.4114381451     0.4551439678
$end
--------------------------------------------------------------

             Standard Nuclear Orientation (Angstroms)
    I     Atom           X                Y                Z
 ----------------------------------------------------------------
    1      C      -5.3738967093     0.3179329636     0.0306750065
    2      C      -4.1468365789     1.2086695538     0.1043919842
    3      H      -5.5016970623    -0.0725754760    -0.9786916367
    4      H      -6.2700383517     0.8762143123     0.3039217697
    5      H      -5.2863455199    -0.5270066350     0.7157419470
    6      O      -2.9649721445     0.5567774370    -0.2999410694
    7      H      -4.0384672420     1.6203245294     1.1148808126
    8      H      -4.2500460175     2.0483214601    -0.5758127816
    9      H      -2.7705103739    -0.4114381451     0.4551439678
 ----------------------------------------------------------------

    7    -154.9420164382      1.64E-05 Convergence criterion met
    6    -155.0069096566      8.69E-06 Convergence criterion met
 Total energy in the final basis set = -155.00690966

                    Orbital Energies (a.u.)
 --------------------------------------------------------------

 Alpha MOs
 -- Occupied --
-19.2641 -10.3248 -10.2729  -1.0937  -0.8412  -0.7072  -0.5763  -0.5373
 -0.5155  -0.4662  -0.4561  -0.4043  -0.3558

                    Cartesian Multipole Moments
 -----------------------------------------------------------------
    Charge (ESU x 10^10)
                 0.0000
    Dipole Moment (Debye)
         X      -1.0916      Y      -0.5481      Z       1.3264
       Tot       1.8031
    Quadrupole Moments (Debye-Ang)
        XX     -12.7962     XY      -0.4053     YY     -18.9532
        XZ      -3.4116     YZ      -0.4594     ZZ     -20.1022

 Total job time:  10.96s(wall), 56.53s(cpu)
        *  Thank you very much for using Q-Chem.  Have a nice day.  *
