 Q-Chem 5.3 (devel), Q-Chem, Inc., Pleasanton, CA (2020)
 Q-Chem 5.3.0 for Intel X86 EM64T Linux

User input:
--------------------------------------------------------------
$rem
   JOBTYPE  sp
   EXCHANGE   omegaB97X-D
   BASIS   6-311+G(2df,2pd)
   UNRESTRICTED   False
   max_scf_cycles   250
   geom_opt_max_cycles   1500
   basis2 6-31G*
   scf_algorithm rca_diis
   SYM_IGNORE  TRUE
   print_input   true
   geom_opt_dmax   80
   pop_mulliken false
   XC_GRID 000075000302
$end

$molecule
0 1
C       -5.3756816244     0.3190321389     0.0148660737
C       -4.1331324616     1.1846716664     0.1095569789
H       -5.4194896158     -0.1092393465     -0.9845316335
H       -6.2537452456     0.8650880271     0.3635367802
H       -5.3924527168     -0.5099705153     0.7297547292
O       -2.9531309533     0.4898485092     -0.2445982717
H       -4.0416409474     1.6049859675     1.1175370729
H       -4.2093582588     2.0289334695     -0.5762044944
H       -2.8241781762     -0.2561299168     0.3403927647
$end
--------------------------------------------------------------

             Standard Nuclear Orientation (Angstroms)
    I     Atom           X                Y                Z
 ----------------------------------------------------------------
    1      C      -5.3756816244     0.3190321389     0.0148660737
    2      C      -4.1331324616     1.1846716664     0.1095569789
    3      H      -5.4194896158    -0.1092393465    -0.9845316335
    4      H      -6.2537452456     0.8650880271     0.3635367802
    5      H      -5.3924527168    -0.5099705153     0.7297547292
    6      O      -2.9531309533     0.4898485092    -0.2445982717
    7      H      -4.0416409474     1.6049859675     1.1175370729
    8      H      -4.2093582588     2.0289334695    -0.5762044944
    9      H      -2.8241781762    -0.2561299168     0.3403927647
 ----------------------------------------------------------------

    6    -154.9790692870      9.97E-05 Convergence criterion met
    6    -155.0475344443      5.84E-06 Convergence criterion met
 Total energy in the final basis set = -155.04753444

                    Orbital Energies (a.u.)
 --------------------------------------------------------------

 Alpha MOs
 -- Occupied --
-19.2459 -10.3277 -10.2742  -1.1256  -0.8502  -0.7241  -0.5966  -0.5413
 -0.5318  -0.4736  -0.4459  -0.4138  -0.3616

                    Cartesian Multipole Moments
 -----------------------------------------------------------------
    Charge (ESU x 10^10)
                 0.0000
    Dipole Moment (Debye)
         X      -1.1588      Y      -0.4434      Z       1.2865
       Tot       1.7873
    Quadrupole Moments (Debye-Ang)
        XX     -12.2813     XY      -0.4265     YY     -18.9737
        XZ      -3.7953     YZ      -0.1845     ZZ     -19.8739

 Total job time:  10.82s(wall), 55.71s(cpu)
        *  Thank you very much for using Q-Chem.  Have a nice day.  *
