 Q-Chem 5.3 (devel), Q-Chem, Inc., Pleasanton, CA (2020)
 Q-Chem 5.3.0 for Intel X86 EM64T Linux

User input:
--------------------------------------------------------------
$rem
   JOBTYPE  sp
   EXCHANGE   omegaB97X-D
   BASIS   6-311+G(2df,2pd)
   UNRESTRICTED   False
   max_scf_cycles   250
   geom_opt_max_cycles   1500
   basis2 6-31G*
   scf_algorithm rca_diis
   SYM_IGNORE  TRUE
   print_input   true
   geom_opt_dmax   80
   pop_mulliken false
   XC_GRID 000075000302
$end

$molecule
0 1
C       -5.3189038536     0.2674338012     0.0246903548
C       -4.0745733217     1.1063602730     0.0918332733
H       -5.4679990463     -0.0022014666     -1.0185657598
H       -6.2544637811     0.7823385860     0.2533043773
H       -5.2499107131     -0.4688216420     0.8248790565
O       -2.9636427157     0.3654116714     -0.2770357333
H       -4.1278690501     1.8188098875     0.9416374002
H       -4.2650265604     2.1111480330     -0.3088239860
H       -2.8804209579     -0.3632591435     0.3383910172
$end
--------------------------------------------------------------

             Standard Nuclear Orientation (Angstroms)
    I     Atom           X                Y                Z
 ----------------------------------------------------------------
    1      C      -5.3189038536     0.2674338012     0.0246903548
    2      C      -4.0745733217     1.1063602730     0.0918332733
    3      H      -5.4679990463    -0.0022014666    -1.0185657598
    4      H      -6.2544637811     0.7823385860     0.2533043773
    5      H      -5.2499107131    -0.4688216420     0.8248790565
    6      O      -2.9636427157     0.3654116714    -0.2770357333
    7      H      -4.1278690501     1.8188098875     0.9416374002
    8      H      -4.2650265604     2.1111480330    -0.3088239860
    9      H      -2.8804209579    -0.3632591435     0.3383910172
 ----------------------------------------------------------------

    7    -154.9298752742      1.24E-05 Convergence criterion met
    6    -155.0006491690      7.32E-06 Convergence criterion met
 Total energy in the final basis set = -155.00064917

                    Orbital Energies (a.u.)
 --------------------------------------------------------------

 Alpha MOs
 -- Occupied --
-19.2601 -10.3261 -10.2719  -1.1426  -0.8560  -0.7339  -0.6201  -0.5560
 -0.5291  -0.4731  -0.4437  -0.3929  -0.3518

                    Cartesian Multipole Moments
 -----------------------------------------------------------------
    Charge (ESU x 10^10)
                 0.0000
    Dipole Moment (Debye)
         X      -1.0682      Y      -0.1415      Z       1.2821
       Tot       1.6748
    Quadrupole Moments (Debye-Ang)
        XX     -12.7772     XY      -1.8101     YY     -18.0952
        XZ      -3.5547     YZ      -0.1921     ZZ     -20.7006

 Total job time:  11.20s(wall), 57.83s(cpu)
        *  Thank you very much for using Q-Chem.  Have a nice day.  *
