 Q-Chem 5.3 (devel), Q-Chem, Inc., Pleasanton, CA (2020)
 Q-Chem 5.3.0 for Intel X86 EM64T Linux

User input:
--------------------------------------------------------------
$rem
   JOBTYPE  sp
   EXCHANGE   omegaB97X-D
   BASIS   6-311+G(2df,2pd)
   UNRESTRICTED   False
   max_scf_cycles   250
   geom_opt_max_cycles   1500
   basis2 6-31G*
   scf_algorithm rca_diis
   SYM_IGNORE  TRUE
   print_input   true
   geom_opt_dmax   80
   pop_mulliken false
   XC_GRID 000075000302
$end

$molecule
0 1
C       -5.2901613135     0.3382089588     0.0955724642
C       -4.2340982196     1.1611397758     0.0620414682
H       -5.3179616594     0.0110915073     -0.9423556893
H       -6.1789529851     0.9525196730     0.2424175100
H       -5.2787749322     -0.5163594309     0.7661818593
O       -2.8266178299     0.3914612137     -0.3014564150
H       -4.0152009665     1.4805857377     1.0776527675
H       -4.4644044419     2.0304129265     -0.5436337643
H       -2.9966376518     -0.2318403619     0.4138897996
$end
--------------------------------------------------------------

             Standard Nuclear Orientation (Angstroms)
    I     Atom           X                Y                Z
 ----------------------------------------------------------------
    1      C      -5.2901613135     0.3382089588     0.0955724642
    2      C      -4.2340982196     1.1611397758     0.0620414682
    3      H      -5.3179616594     0.0110915073    -0.9423556893
    4      H      -6.1789529851     0.9525196730     0.2424175100
    5      H      -5.2787749322    -0.5163594309     0.7661818593
    6      O      -2.8266178299     0.3914612137    -0.3014564150
    7      H      -4.0152009665     1.4805857377     1.0776527675
    8      H      -4.4644044419     2.0304129265    -0.5436337643
    9      H      -2.9966376518    -0.2318403619     0.4138897996
 ----------------------------------------------------------------

    7    -154.9222495447      1.78E-05 Convergence criterion met
    6    -154.9937053175      8.90E-06 Convergence criterion met
 Total energy in the final basis set = -154.99370532

                    Orbital Energies (a.u.)
 --------------------------------------------------------------

 Alpha MOs
 -- Occupied --
-19.2429 -10.3297 -10.2752  -1.0790  -0.9106  -0.7038  -0.5941  -0.5557
 -0.5338  -0.4784  -0.4452  -0.4146  -0.3623

                    Cartesian Multipole Moments
 -----------------------------------------------------------------
    Charge (ESU x 10^10)
                 0.0000
    Dipole Moment (Debye)
         X      -2.4550      Y       0.0782      Z       1.4144
       Tot       2.8343
    Quadrupole Moments (Debye-Ang)
        XX      -2.8204     XY      -3.0938     YY     -18.4325
        XZ      -3.9509     YZ      -0.7469     ZZ     -19.7345

 Total job time:  11.37s(wall), 58.43s(cpu)
        *  Thank you very much for using Q-Chem.  Have a nice day.  *
