 Q-Chem 5.3 (devel), Q-Chem, Inc., Pleasanton, CA (2020)
 Q-Chem 5.3.0 for Intel X86 EM64T Linux

User input:
--------------------------------------------------------------
$rem
   JOBTYPE  sp
   EXCHANGE   omegaB97X-D
   BASIS   6-311+G(2df,2pd)
   UNRESTRICTED   False
   max_scf_cycles   250
   geom_opt_max_cycles   1500
   basis2 6-31G*
   scf_algorithm rca_diis
   SYM_IGNORE  TRUE
   print_input   true
   geom_opt_dmax   80
   pop_mulliken false
   XC_GRID 000075000302
$end

$molecule
0 1
C       -5.3720753007     0.3146044094     0.0389342051
C       -4.1317300426     1.1891964561     0.1386426529
H       -5.4865667829     -0.0797216008     -0.9661704436
H       -6.2709095509     0.8942855291     0.2932662325
H       -5.3114967095     -0.5326361719     0.7366787267
O       -2.9508106024     0.4989018139     -0.2346244361
H       -4.0462689954     1.5674839571     1.0493965229
H       -4.2048328313     2.0088701525     -0.5420638549
H       -2.8281191841     -0.2437645453     0.3562503946
$end
--------------------------------------------------------------

             Standard Nuclear Orientation (Angstroms)
    I     Atom           X                Y                Z
 ----------------------------------------------------------------
    1      C      -5.3720753007     0.3146044094     0.0389342051
    2      C      -4.1317300426     1.1891964561     0.1386426529
    3      H      -5.4865667829    -0.0797216008    -0.9661704436
    4      H      -6.2709095509     0.8942855291     0.2932662325
    5      H      -5.3114967095    -0.5326361719     0.7366787267
    6      O      -2.9508106024     0.4989018139    -0.2346244361
    7      H      -4.0462689954     1.5674839571     1.0493965229
    8      H      -4.2048328313     2.0088701525    -0.5420638549
    9      H      -2.8281191841    -0.2437645453     0.3562503946
 ----------------------------------------------------------------

    7    -154.9732030108      7.02E-06 Convergence criterion met
    6    -155.0424979561      5.54E-06 Convergence criterion met
 Total energy in the final basis set = -155.04249796

                    Orbital Energies (a.u.)
 --------------------------------------------------------------

 Alpha MOs
 -- Occupied --
-19.2441 -10.3129 -10.2747  -1.1241  -0.8523  -0.7296  -0.6055  -0.5448
 -0.5226  -0.4717  -0.4569  -0.4147  -0.3637

                    Cartesian Multipole Moments
 -----------------------------------------------------------------
    Charge (ESU x 10^10)
                 0.0000
    Dipole Moment (Debye)
         X      -1.1830      Y      -0.3413      Z       1.3104
       Tot       1.7981
    Quadrupole Moments (Debye-Ang)
        XX     -12.0625     XY      -0.9629     YY     -18.6905
        XZ      -3.5417     YZ      -0.1550     ZZ     -19.7902

 Total job time:  11.16s(wall), 57.48s(cpu)
        *  Thank you very much for using Q-Chem.  Have a nice day.  *
