 Q-Chem 5.3 (devel), Q-Chem, Inc., Pleasanton, CA (2020)
 Q-Chem 5.3.0 for Intel X86 EM64T Linux

User input:
--------------------------------------------------------------
$rem
   JOBTYPE  sp
   EXCHANGE   omegaB97X-D
   BASIS   6-311+G(2df,2pd)
   UNRESTRICTED   False
   max_scf_cycles   250
   geom_opt_max_cycles   1500
   basis2 6-31G*
   scf_algorithm rca_diis
   SYM_IGNORE  TRUE
   print_input   true
   geom_opt_dmax   80
   pop_mulliken false
   XC_GRID 000075000302
$end

$molecule
0 1
C       -5.3866208182     0.3275616424     0.1123650151
C       -4.1339273846     1.1791932521     0.1603639506
H       -5.5439554731     -0.1701087735     -1.1428243656
H       -6.1686864752     0.8391586285     0.3276716010
H       -5.3226317366     -0.4502084087     0.7372482868
O       -2.9641091673     0.4844614710     -0.2283258283
H       -4.0258246917     1.5906764828     1.1232105047
H       -4.2196222912     2.0710256002     -0.5871570601
H       -2.8374319620     -0.2545398948     0.3677578959
$end
--------------------------------------------------------------

             Standard Nuclear Orientation (Angstroms)
    I     Atom           X                Y                Z
 ----------------------------------------------------------------
    1      C      -5.3866208182     0.3275616424     0.1123650151
    2      C      -4.1339273846     1.1791932521     0.1603639506
    3      H      -5.5439554731    -0.1701087735    -1.1428243656
    4      H      -6.1686864752     0.8391586285     0.3276716010
    5      H      -5.3226317366    -0.4502084087     0.7372482868
    6      O      -2.9641091673     0.4844614710    -0.2283258283
    7      H      -4.0258246917     1.5906764828     1.1232105047
    8      H      -4.2196222912     2.0710256002    -0.5871570601
    9      H      -2.8374319620    -0.2545398948     0.3677578959
 ----------------------------------------------------------------

    7    -154.9296373971      7.92E-06 Convergence criterion met
    6    -154.9995850132      5.67E-06 Convergence criterion met
 Total energy in the final basis set = -154.99958501

                    Orbital Energies (a.u.)
 --------------------------------------------------------------

 Alpha MOs
 -- Occupied --
-19.2472 -10.3321 -10.2750  -1.1268  -0.8568  -0.7260  -0.5972  -0.5544
 -0.5318  -0.4717  -0.4399  -0.4051  -0.3647

                    Cartesian Multipole Moments
 -----------------------------------------------------------------
    Charge (ESU x 10^10)
                -0.0000
    Dipole Moment (Debye)
         X      -1.1265      Y      -0.3467      Z       1.5865
       Tot       1.9764
    Quadrupole Moments (Debye-Ang)
        XX     -12.5143     XY      -0.9723     YY     -19.0026
        XZ      -5.1052     YZ      -0.1403     ZZ     -19.8028

 Total job time:  11.20s(wall), 57.53s(cpu)
        *  Thank you very much for using Q-Chem.  Have a nice day.  *
