 Q-Chem 5.3 (devel), Q-Chem, Inc., Pleasanton, CA (2020)
 Q-Chem 5.3.0 for Intel X86 EM64T Linux

User input:
--------------------------------------------------------------
$rem
   JOBTYPE  sp
   EXCHANGE   omegaB97X-D
   BASIS   6-311+G(2df,2pd)
   UNRESTRICTED   False
   max_scf_cycles   250
   geom_opt_max_cycles   1500
   basis2 6-31G*
   scf_algorithm rca_diis
   SYM_IGNORE  TRUE
   print_input   true
   geom_opt_dmax   80
   pop_mulliken false
   XC_GRID 000075000302
$end

$molecule
0 1
C       -5.3614784392     0.2987094063     0.0484312939
C       -4.1332046521     1.1930112446     0.1012960775
H       -5.4913552608     -0.1256038155     -1.0088547033
H       -6.3167834729     0.9144209347     0.3095403752
H       -5.3012060982     -0.4600301105     0.6884077920
O       -2.9488448849     0.5010649635     -0.2557430975
H       -4.0255565443     1.6314834280     1.1386174230
H       -4.2064378947     1.8975775461     -0.4909681268
H       -2.8179427528     -0.2334135971     0.3395829659
$end
--------------------------------------------------------------

             Standard Nuclear Orientation (Angstroms)
    I     Atom           X                Y                Z
 ----------------------------------------------------------------
    1      C      -5.3614784392     0.2987094063     0.0484312939
    2      C      -4.1332046521     1.1930112446     0.1012960775
    3      H      -5.4913552608    -0.1256038155    -1.0088547033
    4      H      -6.3167834729     0.9144209347     0.3095403752
    5      H      -5.3012060982    -0.4600301105     0.6884077920
    6      O      -2.9488448849     0.5010649635    -0.2557430975
    7      H      -4.0255565443     1.6314834280     1.1386174230
    8      H      -4.2064378947     1.8975775461    -0.4909681268
    9      H      -2.8179427528    -0.2334135971     0.3395829659
 ----------------------------------------------------------------

    7    -154.9450291015      7.27E-06 Convergence criterion met
    6    -155.0153376735      5.89E-06 Convergence criterion met
 Total energy in the final basis set = -155.01533767

                    Orbital Energies (a.u.)
 --------------------------------------------------------------

 Alpha MOs
 -- Occupied --
-19.2454 -10.3130 -10.2768  -1.1259  -0.8547  -0.7384  -0.5912  -0.5599
 -0.5208  -0.4697  -0.4609  -0.4164  -0.3609

                    Cartesian Multipole Moments
 -----------------------------------------------------------------
    Charge (ESU x 10^10)
                 0.0000
    Dipole Moment (Debye)
         X      -1.1183      Y      -0.4102      Z       1.2352
       Tot       1.7160
    Quadrupole Moments (Debye-Ang)
        XX     -12.6363     XY      -0.6010     YY     -18.7711
        XZ      -3.2630     YZ      -0.3670     ZZ     -19.9504

 Total job time:  11.23s(wall), 57.87s(cpu)
        *  Thank you very much for using Q-Chem.  Have a nice day.  *
