 Q-Chem 5.3 (devel), Q-Chem, Inc., Pleasanton, CA (2020)
 Q-Chem 5.3.0 for Intel X86 EM64T Linux

User input:
--------------------------------------------------------------
$rem
   JOBTYPE  sp
   EXCHANGE   omegaB97X-D
   BASIS   6-311+G(2df,2pd)
   UNRESTRICTED   False
   max_scf_cycles   250
   geom_opt_max_cycles   1500
   basis2 6-31G*
   scf_algorithm rca_diis
   SYM_IGNORE  TRUE
   print_input   true
   geom_opt_dmax   80
   pop_mulliken false
   XC_GRID 000075000302
$end

$molecule
0 1
C       -5.3723103648     0.2972786642     0.0794710018
C       -4.1329911423     1.1714513230     0.1489847719
H       -5.6353151274     -0.0481834839     -0.9238382121
H       -6.2727057492     0.9110104783     0.1285589692
H       -5.1611917970     -0.5547253899     0.7210321462
O       -2.9544789609     0.4902728770     -0.2428491750
H       -4.0211426346     1.5973676552     1.1530966123
H       -4.2071987390     1.9924060361     -0.5619340544
H       -2.8454754847     -0.2396581600     0.3677879402
$end
--------------------------------------------------------------

             Standard Nuclear Orientation (Angstroms)
    I     Atom           X                Y                Z
 ----------------------------------------------------------------
    1      C      -5.3723103648     0.2972786642     0.0794710018
    2      C      -4.1329911423     1.1714513230     0.1489847719
    3      H      -5.6353151274    -0.0481834839    -0.9238382121
    4      H      -6.2727057492     0.9110104783     0.1285589692
    5      H      -5.1611917970    -0.5547253899     0.7210321462
    6      O      -2.9544789609     0.4902728770    -0.2428491750
    7      H      -4.0211426346     1.5973676552     1.1530966123
    8      H      -4.2071987390     1.9924060361    -0.5619340544
    9      H      -2.8454754847    -0.2396581600     0.3677879402
 ----------------------------------------------------------------

    7    -154.9683661132      8.38E-06 Convergence criterion met
    6    -155.0373471990      5.60E-06 Convergence criterion met
 Total energy in the final basis set = -155.03734720

                    Orbital Energies (a.u.)
 --------------------------------------------------------------

 Alpha MOs
 -- Occupied --
-19.2468 -10.3267 -10.2756  -1.1272  -0.8513  -0.7233  -0.5987  -0.5586
 -0.5136  -0.4758  -0.4540  -0.4035  -0.3637

                    Cartesian Multipole Moments
 -----------------------------------------------------------------
    Charge (ESU x 10^10)
                 0.0000
    Dipole Moment (Debye)
         X      -1.2182      Y      -0.3703      Z       1.1443
       Tot       1.7119
    Quadrupole Moments (Debye-Ang)
        XX     -11.5719     XY      -0.9494     YY     -18.9875
        XZ      -2.1262     YZ      -0.5490     ZZ     -20.1115

 Total job time:  11.19s(wall), 57.83s(cpu)
        *  Thank you very much for using Q-Chem.  Have a nice day.  *
