 Q-Chem 5.3 (devel), Q-Chem, Inc., Pleasanton, CA (2020)
 Q-Chem 5.3.0 for Intel X86 EM64T Linux

User input:
--------------------------------------------------------------
$comment
Optimize C2H5OH at omegaB97X-D/6-311+G(2df,2pd)
$end

$rem
JOBTYPE opt
EXCHANGE omegaB97X-D
BASIS 6-311+G(2df,2pd)
XC_GRID 000075000302
SYM_IGNORE TRUE
$end

$molecule
0 1
C         -5.38644        0.30780        0.02290
C         -4.12729        1.16162        0.10031
H         -5.53286       -0.06035       -1.01466
H         -6.26858        0.91389        0.31849
H         -5.30082       -0.56100        0.70936
O         -3.00689        0.41815       -0.29456
H         -3.98800        1.55970        1.13110
H         -4.23203        2.03321       -0.57969
H         -2.75990       -0.15580        0.47706
$end

--------------------------------------------------------------

   12    -155.0473838203      3.35e-09  Convergence criterion met
 Total energy in the final basis set =     -155.0473838203
   10    -155.0505923516      4.04e-09  Convergence criterion met
 Total energy in the final basis set =     -155.0505923516
    9    -155.0507172736      8.65e-09  Convergence criterion met
 Total energy in the final basis set =     -155.0507172736
   10    -155.0508239073      2.92e-09  Convergence criterion met
 Total energy in the final basis set =     -155.0508239073
   10    -155.0509239755      6.76e-09  Convergence criterion met
 Total energy in the final basis set =     -155.0509239755
    9    -155.0509400709      3.51e-09  Convergence criterion met
 Total energy in the final basis set =     -155.0509400709
    8    -155.0509444231      5.52e-09  Convergence criterion met
 Total energy in the final basis set =     -155.0509444231
    7    -155.0509445640      5.71e-09  Convergence criterion met
 Total energy in the final basis set =     -155.0509445640
 Final energy is   -155.050944564017
 **  OPTIMIZATION CONVERGED  **
 Total job time:  189.76s(wall), 568.06s(cpu)
        *  Thank you very much for using Q-Chem.  Have a nice day.  *

User input: 2 of 3

                  Welcome to Q-Chem
     A Quantum Leap Into The Future Of Chemistry

 Q-Chem 5.3 (devel), Q-Chem, Inc., Pleasanton, CA (2020)

 Yihan Shao,  Zhengting Gan,  E. Epifanovsky,  A. T. B. Gilbert,  M. Wormit,
 J. Kussmann,  A. W. Lange,  A. Behn,  Jia Deng,  Xintian Feng,  D. Ghosh,
 M. Goldey,  P. R. Horn,  L. D. Jacobson,  I. Kaliman,  T. Kus,  A. Landau,
 Jie Liu,  E. I. Proynov,  R. M. Richard,  R. P. Steele,  E. J. Sundstrom,
 H. L. Woodcock III,  P. M. Zimmerman,  D. Zuev,  B. Alam,  B. Albrecht,
 E. Alguire,  S. A. Baeppler,  D. Barton,  Z. Benda,  Y. A. Bernard,
 E. J. Berquist,  K. B. Bravaya,  H. Burton,  K. Carter-Fenk,  D. Casanova,
 Chun-Min Chang,  Yunqing Chen,  A. Chien,  K. D. Closser,  M. P. Coons,
 S. Coriani,  S. Dasgupta,  A. L. Dempwolff,  M. Diedenhofen,  Hainam Do,
 R. G. Edgar,  Po-Tung Fang,  S. Faraji,  S. Fatehi,  Qingguo Feng,
 J. Fosso-Tande,  J. Gayvert,  Qinghui Ge,  A. Ghysels,  G. Gidofalvi,
 J. Gomes,  J. Gonthier,  A. Gunina,  D. Hait,  M. W. D. Hanson-Heine,
 P. H. P. Harbach,  A. W. Hauser,  M. F. Herbst,  J. E. Herr,
 E. G. Hohenstein,  Z. C. Holden,  Kerwin Hui,  B. C. Huynh,  T.-C. Jagau,
 Hyunjun Ji,  B. Kaduk,  K. Khistyaev,  Jaehoon Kim,  P. Klunzinger,  K. Koh,
 D. Kosenkov,  L. Koulias,  T. Kowalczyk,  C. M. Krauter,  A. Kunitsa,
 Ka Un Lao,  A. Laurent,  K. V. Lawler,  Joonho Lee,  D. Lefrancois,
 S. Lehtola,  D. S. Levine,  Yi-Pei Li,  You-Sheng Lin,  Fenglai Liu,
 Kuan-Yu Liu,  E. Livshits,  M. Loipersberger,  A. Luenser,  P. Manohar,
 E. Mansoor,  S. F. Manzer,  Shan-Ping Mao,  Yuezhi Mao,  N. Mardirossian,
 A. V. Marenich,  T. Markovich,  L. A. Martinez-Martinez,  S. A. Maurer,
 N. J. Mayhall,  S. C. McKenzie,  J.-M. Mewes,  P. Morgante,  A. F. Morrison,
 J. W. Mullinax,  K. Nanda,  T. S. Nguyen-Beck,  R. Olivares-Amaya,
 K. J. Oosterbaan,  J. A. Parkhill,  S. K. Paul,  F. Pavosevic,  Zheng Pei,
 T. M. Perrine,  F. Plasser,  P. Pokhilko,  S. Prager,  A. Prociuk,
 E. Ramos,  B. Rana,  D. R. Rehn,  F. Rob,  M. Scheurer,  M. Schneider,
 N. Sergueev,  S. M. Sharada,  S. Sharma,  D. W. Small,  T. Stauch,
 C. J. Stein,  T. Stein,  Yu-Chuan Su,  S. P. Veccham,  Zhen Tao,
 A. J. W. Thom,  A. Tkatchenko,  T. Tsuchimochi,  N. M. Tubman,  L. Vogt,
 M. L. Vidal,  O. Vydrov,  M. A. Watson,  J. Wenzel,  M. de Wergifosse,
 T. A. Wesolowski,  A. White,  J. Witte,  A. Yamada,  Jun Yang,  K. Yao,
 S. Yeganeh,  S. R. Yost,  Zhi-Qiang You,  A. Zech,  Igor Ying Zhang,
 Xing Zhang,  Yan Zhao,  Ying Zhu,  B. R. Brooks,  G. K. L. Chan,
 C. J. Cramer,  M. S. Gordon,  W. J. Hehre,  A. Klamt,  M. W. Schmidt,
 C. D. Sherrill,  D. G. Truhlar,  A. Aspuru-Guzik,  R. Baer,  A. T. Bell,
 N. A. Besley,  Jeng-Da Chai,  A. E. DePrince, III,  R. A. DiStasio Jr.,
 A. Dreuw,  B. D. Dunietz,  T. R. Furlani,  Chao-Ping Hsu,  Yousung Jung,
 Jing Kong,  D. S. Lambrecht,  WanZhen Liang,  C. Ochsenfeld,
 V. A. Rassolov,  L. V. Slipchenko,  J. E. Subotnik,  T. Van Voorhis,
 J. M. Herbert,  A. I. Krylov,  P. M. W. Gill,  M. Head-Gordon

 Contributors to earlier versions of Q-Chem not listed above:
 R. D. Adamson,  B. Austin,  J. Baker,  G. J. O. Beran,  K. Brandhorst,
 S. T. Brown,  E. F. C. Byrd,  A. K. Chakraborty,  C.-L. Cheng,
 Siu Hung Chien,  D. M. Chipman,  D. L. Crittenden,  H. Dachsel,
 R. J. Doerksen,  A. D. Dutoi,  L. Fusti-Molnar,  W. A. Goddard III,
 A. Golubeva-Zadorozhnaya,  S. R. Gwaltney,  G. Hawkins,  A. Heyden,
 S. Hirata,  G. Kedziora,  F. J. Keil,  C. Kelley,  Jihan Kim,  R. A. King,
 R. Z. Khaliullin,  P. P. Korambath,  W. Kurlancheek,  A. M. Lee,  M. S. Lee,
 S. V. Levchenko,  Ching Yeh Lin,  D. Liotard,  R. C. Lochan,  I. Lotan,
 P. E. Maslen,  N. Nair,  D. P. O'Neill,  D. Neuhauser,  E. Neuscamman,
 C. M. Oana,  R. Olson,  B. Peters,  R. Peverati,  P. A. Pieniazek,
 Y. M. Rhee,  J. Ritchie,  M. A. Rohrdanz,  E. Rosta,  N. J. Russ,
 H. F. Schaefer III,  N. E. Schultz,  N. Shenvi,  A. C. Simmonett,  A. Sodt,
 D. Stuck,  K. S. Thanthiriwatte,  V. Vanovschi,  Tao Wang,  A. Warshel,
 C. F. Williams,  Q. Wu,  X. Xu,  W. Zhang

 Please cite Q-Chem as follows:
 Y. Shao et al., Mol. Phys. 113, 184-215 (2015)
 DOI: 10.1080/00268976.2014.952696

 Q-Chem 5.3.0 for Intel X86 EM64T Linux

 Parts of Q-Chem use Armadillo 9.800.1 (Horizon Scraper).
 http://arma.sourceforge.net/

 Q-Chem begins on Mon Jul 20 23:42:29 2020

Host: centos77-c3
0

     Scratch files written to /tmp/29653.centos77-h1/qchem43123//
Processing $rem in /opt/qchem-5.3.0-intel2020u1//config/preferences:
Processing $rem in /home/shihchengli/.qchemrc:
The previous job contains 0 fragments, simply inherited here

Checking the input file for inconsistencies... 	...done.

--------------------------------------------------------------
User input:
--------------------------------------------------------------

$comment
Vibrational analysis of C2H5OH at omegaB97X-D/6-311+G(2df,2pd)
$end

$rem
JOBTYPE freq
EXCHANGE omegaB97X-D
BASIS 6-311+G(2df,2pd)
XC_GRID 000075000302
SYM_IGNORE TRUE
$end

$molecule
read
$end

--------------------------------------------------------------

   12    -155.0509445642      3.44e-09  Convergence criterion met
 Total energy in the final basis set =     -155.0509445642
 Frequency:       261.51                 284.45                 430.94
 Force Cnst:      0.0420                 0.0552                 0.2983
 Red. Mass:       1.0436                 1.1570                 2.7263
 IR Intens:       99.373                 23.196                 10.614
 Frequency:       807.85                 902.22                1072.26
 Force Cnst:      0.4178                 1.0404                 1.0179
 Red. Mass:       1.0866                 2.1694                 1.5026
 IR Intens:        3.061                  7.925                 14.768
 Frequency:      1100.97                1152.66                1286.43
 Force Cnst:      1.8929                 1.5358                 1.2532
 Red. Mass:       2.6506                 1.9619                 1.2853
 IR Intens:      111.919                 14.515                 11.096
 Frequency:      1382.83                1408.04                1431.84
 Force Cnst:      1.3485                 1.4123                 1.5883
 Red. Mass:       1.1969                 1.2090                 1.3149
 IR Intens:        3.259                  5.834                 41.169
 Frequency:      1497.37                1500.11                1527.01
 Force Cnst:      1.3806                 1.3820                 1.4959
 Red. Mass:       1.0451                 1.0424                 1.0889
 IR Intens:        8.137                  2.430                  1.774
 Frequency:      3018.41                3045.80                3103.28
 Force Cnst:      5.7486                 5.6648                 6.2136
 Red. Mass:       1.0709                 1.0364                 1.0951
 IR Intens:       59.971                 15.552                  3.019
 Frequency:      3123.83                3136.62                3910.04
 Force Cnst:      6.3197                 6.3948                 9.6056
 Red. Mass:       1.0992                 1.1032                 1.0664
 IR Intens:       47.958                 31.133                 28.881

 STANDARD THERMODYNAMIC QUANTITIES AT   298.15 K  AND     1.00 ATM

   This Molecule has  0 Imaginary Frequencies
   Zero point vibrational energy:       50.585 kcal/mol

   Atom    1 Element C  Has Mass   12.00000
   Atom    2 Element C  Has Mass   12.00000
   Atom    3 Element H  Has Mass    1.00783
   Atom    4 Element H  Has Mass    1.00783
   Atom    5 Element H  Has Mass    1.00783
   Atom    6 Element O  Has Mass   15.99491
   Atom    7 Element H  Has Mass    1.00783
   Atom    8 Element H  Has Mass    1.00783
   Atom    9 Element H  Has Mass    1.00783
   Molecular Mass:    46.041890 amu
   Principal axes and moments of inertia in amu*Bohr^2:
                             1           2           3
    Eigenvalues --       52.01673   195.12293   220.87708
          X               0.99302    -0.04413     0.10936
          Y               0.06543     0.97768    -0.19964
          Z              -0.09811     0.20540     0.97375
   Rotational Symmetry Number is   1
   The Molecule is an Asymmetric Top
   Translational Enthalpy:        0.889 kcal/mol
   Rotational Enthalpy:           0.889 kcal/mol
   Vibrational Enthalpy:         51.489 kcal/mol
   gas constant (RT):             0.592 kcal/mol
   Translational Entropy:        37.406  cal/mol.K
   Rotational Entropy:           22.332  cal/mol.K
   Vibrational Entropy:           4.651  cal/mol.K

   Total Enthalpy:               53.859 kcal/mol
   Total Entropy:                64.389  cal/mol.K

 Q-Chem 5.3 (devel), Q-Chem, Inc., Pleasanton, CA (2020)
 Q-Chem 5.3.0 for Intel X86 EM64T Linux

             Standard Nuclear Orientation (Angstroms)
    I     Atom           X                Y                Z
 ----------------------------------------------------------------
    1      C      -5.3739015644     0.3103828479     0.0359844482
    2      C      -4.1329966799     1.1797398635     0.1225775852
    3      H      -5.4906299103    -0.0893361133    -0.9711879115
    4      H      -6.2653293757     0.8871742516     0.2871686603
    5      H      -5.3129491568    -0.5289028814     0.7323756746
    6      O      -2.9527694211     0.4903434571    -0.2439521498
    7      H      -4.0351786776     1.6019212828     1.1293639002
    8      H      -4.2089333852     2.0163330192    -0.5715952114
    9      H      -2.8301218289    -0.2504357274     0.3495750043
 ----------------------------------------------------------------

   12    -155.0509445640      3.44e-09  Convergence criterion met
 Total energy in the final basis set =     -155.0509445640
 Final energy is   -155.050944564017
 **  OPTIMIZATION CONVERGED  **

                    Orbital Energies (a.u.)
 --------------------------------------------------------------

 Alpha MOs
 -- Occupied --
-19.2462 -10.3272 -10.2744  -1.1260  -0.8498  -0.7230  -0.5962  -0.5451
 -0.5236  -0.4698  -0.4582  -0.4120  -0.3626

          Ground-State Mulliken Net Atomic Charges

     Atom                 Charge (a.u.)
  ----------------------------------------
      1 C                    -0.117602
      2 C                     0.099789
      3 H                     0.049086
      4 H                     0.029492
      5 H                     0.023293
      6 O                    -0.309556
      7 H                     0.020797
      8 H                     0.027550
      9 H                     0.177150
  ----------------------------------------
  Sum of atomic charges =     0.000000

                    Cartesian Multipole Moments
 -----------------------------------------------------------------
    Charge (ESU x 10^10)
                -0.0000
    Dipole Moment (Debye)
         X      -1.1765      Y      -0.4157      Z       1.2428
       Tot       1.7611
    Quadrupole Moments (Debye-Ang)
        XX     -12.0746     XY      -0.6393     YY     -18.9451
        XZ      -3.2600     YZ      -0.3007     ZZ     -19.9330

 Total job time:  28.19s(wall), 84.20s(cpu)
        *  Thank you very much for using Q-Chem.  Have a nice day.  *
