 Q-Chem 5.3 (devel), Q-Chem, Inc., Pleasanton, CA (2020)
 Q-Chem 5.3.0 for Intel X86 EM64T Linux

User input:
--------------------------------------------------------------
i$comment
Optimize the saddle point structure for the C2H5OH -> C2H4 + H2O reaction.
Job 1: Hessian evaluation.
Job 2: Saddle point optimization.   Note that the Hessian from a previous calculation is read in.
Job 3: Hessian evaluation and frequency calculation.  This confirms that we indeed reach a saddle point.
$end

$molecule
0 1
C        -5.5442124276    0.5556646819   -0.0590253767
C        -4.4564313935    1.4615476527    0.0231464318
H        -5.9750906626    0.3565370011   -1.0378171388
H        -6.2449323072    0.5114473557    0.7710954911
H        -4.5254054502   -0.3765120236    0.1602042875
O        -3.3224596779   -0.0688240477    0.3899471992
H        -4.2385397952    2.0048298279    0.9359373263
H        -3.9665441606    1.8354368587   -0.8705685869
H        -2.4071165225   -0.4169900496    0.2599705299
$end

$rem
JOBTYPE freq
EXCHANGE omegaB97X-D
BASIS 6-311+G(2df,2pd)
XC_GRID 000075000302
SYM_IGNORE TRUE
$end

--------------------------------------------------------------

   13    -154.9337361020      3.47e-09  Convergence criterion met
 Total energy in the final basis set =     -154.9337361020
 Frequency:     -1868.83                 356.82                 471.61
 Force Cnst:      2.2693                 0.1889                 0.2153
 Red. Mass:       1.1028                 2.5187                 1.6432
 IR Intens:      863.381                213.079                169.112
 Frequency:       529.20                 618.97                 824.80
 Force Cnst:      0.2056                 0.5075                 0.4273
 Red. Mass:       1.2461                 2.2483                 1.0660
 IR Intens:       70.766                 38.681                  3.412
 Frequency:       881.54                 924.22                1078.10
 Force Cnst:      0.4684                 0.5964                 0.8158
 Red. Mass:       1.0229                 1.1850                 1.1913
 IR Intens:        6.710                 44.336                 61.641
 Frequency:      1131.34                1218.70                1230.75
 Force Cnst:      0.9063                 1.8936                 1.3002
 Red. Mass:       1.2018                 2.1640                 1.4569
 IR Intens:       26.789                 76.380                  9.158
 Frequency:      1269.47                1471.84                1540.86
 Force Cnst:      0.9973                 1.4188                 1.9494
 Red. Mass:       1.0503                 1.1116                 1.3935
 IR Intens:       22.729                  5.329                 16.471
 Frequency:      1643.80                3108.01                3144.02
 Force Cnst:      1.7034                 5.9994                 6.1624
 Red. Mass:       1.0700                 1.0541                 1.0581
 IR Intens:       65.583                  3.774                  8.410
 Frequency:      3189.21                3238.86                3500.10
 Force Cnst:      6.6823                 6.9173                 7.6833
 Red. Mass:       1.1151                 1.1192                 1.0645
 IR Intens:        5.569                  3.805                  2.863
 Total job time:  220.03s(wall), 834.58s(cpu)
        *  Thank you very much for using Q-Chem.  Have a nice day.  *

User input: 2 of 3

                  Welcome to Q-Chem
     A Quantum Leap Into The Future Of Chemistry

 Q-Chem 5.3 (devel), Q-Chem, Inc., Pleasanton, CA (2020)

 Yihan Shao,  Zhengting Gan,  E. Epifanovsky,  A. T. B. Gilbert,  M. Wormit,
 J. Kussmann,  A. W. Lange,  A. Behn,  Jia Deng,  Xintian Feng,  D. Ghosh,
 M. Goldey,  P. R. Horn,  L. D. Jacobson,  I. Kaliman,  T. Kus,  A. Landau,
 Jie Liu,  E. I. Proynov,  R. M. Richard,  R. P. Steele,  E. J. Sundstrom,
 H. L. Woodcock III,  P. M. Zimmerman,  D. Zuev,  B. Alam,  B. Albrecht,
 E. Alguire,  S. A. Baeppler,  D. Barton,  Z. Benda,  Y. A. Bernard,
 E. J. Berquist,  K. B. Bravaya,  H. Burton,  K. Carter-Fenk,  D. Casanova,
 Chun-Min Chang,  Yunqing Chen,  A. Chien,  K. D. Closser,  M. P. Coons,
 S. Coriani,  S. Dasgupta,  A. L. Dempwolff,  M. Diedenhofen,  Hainam Do,
 R. G. Edgar,  Po-Tung Fang,  S. Faraji,  S. Fatehi,  Qingguo Feng,
 J. Fosso-Tande,  J. Gayvert,  Qinghui Ge,  A. Ghysels,  G. Gidofalvi,
 J. Gomes,  J. Gonthier,  A. Gunina,  D. Hait,  M. W. D. Hanson-Heine,
 P. H. P. Harbach,  A. W. Hauser,  M. F. Herbst,  J. E. Herr,
 E. G. Hohenstein,  Z. C. Holden,  Kerwin Hui,  B. C. Huynh,  T.-C. Jagau,
 Hyunjun Ji,  B. Kaduk,  K. Khistyaev,  Jaehoon Kim,  P. Klunzinger,  K. Koh,
 D. Kosenkov,  L. Koulias,  T. Kowalczyk,  C. M. Krauter,  A. Kunitsa,
 Ka Un Lao,  A. Laurent,  K. V. Lawler,  Joonho Lee,  D. Lefrancois,
 S. Lehtola,  D. S. Levine,  Yi-Pei Li,  You-Sheng Lin,  Fenglai Liu,
 Kuan-Yu Liu,  E. Livshits,  M. Loipersberger,  A. Luenser,  P. Manohar,
 E. Mansoor,  S. F. Manzer,  Shan-Ping Mao,  Yuezhi Mao,  N. Mardirossian,
 A. V. Marenich,  T. Markovich,  L. A. Martinez-Martinez,  S. A. Maurer,
 N. J. Mayhall,  S. C. McKenzie,  J.-M. Mewes,  P. Morgante,  A. F. Morrison,
 J. W. Mullinax,  K. Nanda,  T. S. Nguyen-Beck,  R. Olivares-Amaya,
 K. J. Oosterbaan,  J. A. Parkhill,  S. K. Paul,  F. Pavosevic,  Zheng Pei,
 T. M. Perrine,  F. Plasser,  P. Pokhilko,  S. Prager,  A. Prociuk,
 E. Ramos,  B. Rana,  D. R. Rehn,  F. Rob,  M. Scheurer,  M. Schneider,
 N. Sergueev,  S. M. Sharada,  S. Sharma,  D. W. Small,  T. Stauch,
 C. J. Stein,  T. Stein,  Yu-Chuan Su,  S. P. Veccham,  Zhen Tao,
 A. J. W. Thom,  A. Tkatchenko,  T. Tsuchimochi,  N. M. Tubman,  L. Vogt,
 M. L. Vidal,  O. Vydrov,  M. A. Watson,  J. Wenzel,  M. de Wergifosse,
 T. A. Wesolowski,  A. White,  J. Witte,  A. Yamada,  Jun Yang,  K. Yao,
 S. Yeganeh,  S. R. Yost,  Zhi-Qiang You,  A. Zech,  Igor Ying Zhang,
 Xing Zhang,  Yan Zhao,  Ying Zhu,  B. R. Brooks,  G. K. L. Chan,
 C. J. Cramer,  M. S. Gordon,  W. J. Hehre,  A. Klamt,  M. W. Schmidt,
 C. D. Sherrill,  D. G. Truhlar,  A. Aspuru-Guzik,  R. Baer,  A. T. Bell,
 N. A. Besley,  Jeng-Da Chai,  A. E. DePrince, III,  R. A. DiStasio Jr.,
 A. Dreuw,  B. D. Dunietz,  T. R. Furlani,  Chao-Ping Hsu,  Yousung Jung,
 Jing Kong,  D. S. Lambrecht,  WanZhen Liang,  C. Ochsenfeld,
 V. A. Rassolov,  L. V. Slipchenko,  J. E. Subotnik,  T. Van Voorhis,
 J. M. Herbert,  A. I. Krylov,  P. M. W. Gill,  M. Head-Gordon

 Contributors to earlier versions of Q-Chem not listed above:
 R. D. Adamson,  B. Austin,  J. Baker,  G. J. O. Beran,  K. Brandhorst,
 S. T. Brown,  E. F. C. Byrd,  A. K. Chakraborty,  C.-L. Cheng,
 Siu Hung Chien,  D. M. Chipman,  D. L. Crittenden,  H. Dachsel,
 R. J. Doerksen,  A. D. Dutoi,  L. Fusti-Molnar,  W. A. Goddard III,
 A. Golubeva-Zadorozhnaya,  S. R. Gwaltney,  G. Hawkins,  A. Heyden,
 S. Hirata,  G. Kedziora,  F. J. Keil,  C. Kelley,  Jihan Kim,  R. A. King,
 R. Z. Khaliullin,  P. P. Korambath,  W. Kurlancheek,  A. M. Lee,  M. S. Lee,
 S. V. Levchenko,  Ching Yeh Lin,  D. Liotard,  R. C. Lochan,  I. Lotan,
 P. E. Maslen,  N. Nair,  D. P. O'Neill,  D. Neuhauser,  E. Neuscamman,
 C. M. Oana,  R. Olson,  B. Peters,  R. Peverati,  P. A. Pieniazek,
 Y. M. Rhee,  J. Ritchie,  M. A. Rohrdanz,  E. Rosta,  N. J. Russ,
 H. F. Schaefer III,  N. E. Schultz,  N. Shenvi,  A. C. Simmonett,  A. Sodt,
 D. Stuck,  K. S. Thanthiriwatte,  V. Vanovschi,  Tao Wang,  A. Warshel,
 C. F. Williams,  Q. Wu,  X. Xu,  W. Zhang

 Please cite Q-Chem as follows:
 Y. Shao et al., Mol. Phys. 113, 184-215 (2015)
 DOI: 10.1080/00268976.2014.952696

 Q-Chem 5.3.0 for Intel X86 EM64T Linux

 Parts of Q-Chem use Armadillo 9.800.1 (Horizon Scraper).
 http://arma.sourceforge.net/

 Q-Chem begins on Tue Jul 21 09:18:23 2020

Host: centos77-c3
0

     Scratch files written to /tmp/29705.centos77-h1/qchem77793//
Processing $rem in /opt/qchem-5.3.0-intel2020u1//config/preferences:
Processing $rem in /home/shihchengli/.qchemrc:
The previous job contains 0 fragments, simply inherited here

Checking the input file for inconsistencies... 	...done.

--------------------------------------------------------------
User input:
--------------------------------------------------------------

$molecule
read
$end

$rem
JOBTYPE ts
EXCHANGE omegaB97X-D
BASIS 6-311+G(2df,2pd)
XC_GRID 000075000302
SYM_IGNORE TRUE
GEOM_OPT_HESSIAN READ
GEOM_OPT_MAXCYC 100
$end

--------------------------------------------------------------

   13    -154.9337361018      3.47e-09  Convergence criterion met
 Total energy in the final basis set =     -154.9337361018
   11    -154.9352080003      8.55e-09  Convergence criterion met
 Total energy in the final basis set =     -154.9352080003
   12    -154.9356554421      1.88e-09  Convergence criterion met
 Total energy in the final basis set =     -154.9356554421
   12    -154.9362349965      2.26e-09  Convergence criterion met
 Total energy in the final basis set =     -154.9362349965
   12    -154.9368465020      2.47e-09  Convergence criterion met
 Total energy in the final basis set =     -154.9368465020
   12    -154.9372346307      2.36e-09  Convergence criterion met
 Total energy in the final basis set =     -154.9372346307
   11    -154.9374448680      7.45e-09  Convergence criterion met
 Total energy in the final basis set =     -154.9374448680
   10    -154.9374383601      5.57e-09  Convergence criterion met
 Total energy in the final basis set =     -154.9374383601
    9    -154.9374403548      5.29e-09  Convergence criterion met
 Total energy in the final basis set =     -154.9374403548
    8    -154.9374406396      4.35e-09  Convergence criterion met
 Total energy in the final basis set =     -154.9374406396
 Final energy is   -154.937440639646
 **  OPTIMIZATION CONVERGED  **
        *  Thank you very much for using Q-Chem.  Have a nice day.  *
 Q-Chem 5.3 (devel), Q-Chem, Inc., Pleasanton, CA (2020)
 Q-Chem 5.3.0 for Intel X86 EM64T Linux

             Standard Nuclear Orientation (Angstroms)
    I     Atom           X                Y                Z
 ----------------------------------------------------------------
    1      C      -5.5459913399     0.5399390194    -0.0727273173
    2      C      -4.4103806313     1.3664969448     0.0651493997
    3      H      -5.8979436617     0.3154152234    -1.0713515943
    4      H      -6.2976793455     0.5671285746     0.7047627870
    5      H      -4.4668802586    -0.3090502593     0.2894372849
    6      O      -3.2928934464    -0.0188279386     0.5868749696
    7      H      -4.2587769013     1.9618937208     0.9544735056
    8      H      -3.8681805958     1.7114826198    -0.8063863959
    9      H      -2.6420062168    -0.2713406478    -0.0773424760
 ----------------------------------------------------------------

   13    -154.9374406398      8.72e-09  Convergence criterion met
 Total energy in the final basis set =     -154.9374406398

                    Orbital Energies (a.u.)
 --------------------------------------------------------------

 Alpha MOs
 -- Occupied --
-19.2424 -10.3541 -10.2543  -1.0885  -0.8744  -0.6975  -0.6111  -0.5694
 -0.5062  -0.4574  -0.4398  -0.4279  -0.3051

          Ground-State Mulliken Net Atomic Charges

     Atom                 Charge (a.u.)
  ----------------------------------------
      1 C                    -0.360644
      2 C                     0.130123
      3 H                     0.056836
      4 H                     0.057995
      5 H                     0.174031
      6 O                    -0.359497
      7 H                     0.070599
      8 H                     0.057528
      9 H                     0.173028
  ----------------------------------------
  Sum of atomic charges =     0.000000

                    Cartesian Multipole Moments
 -----------------------------------------------------------------
    Charge (ESU x 10^10)
                 0.0000
    Dipole Moment (Debye)
         X       0.4788      Y       0.9618      Z      -1.4496
       Tot       1.8043
    Quadrupole Moments (Debye-Ang)
        XX     -24.7099     XY      -3.7683     YY     -19.0739
        XZ       3.2672     YZ       0.9039     ZZ     -20.8115

 Frequency:     -2010.99                 358.69                 453.40
 Force Cnst:      2.6949                 0.0905                 0.3224
 Red. Mass:       1.1310                 1.1941                 2.6616
 IR Intens:      778.857                 10.058                418.011
 Frequency:       547.81                 609.09                 735.35
 Force Cnst:      0.4622                 0.3092                 0.3561
 Red. Mass:       2.6141                 1.4148                 1.1176
 IR Intens:       95.768                 15.783                 61.027
 Frequency:       828.43                 838.35                1036.68
 Force Cnst:      0.4294                 0.5106                 0.6895
 Red. Mass:       1.0619                 1.2330                 1.0890
 IR Intens:       11.866                 64.053                 10.467
 Frequency:      1148.82                1237.89                1246.30
 Force Cnst:      0.9311                 1.3041                 1.7982
 Red. Mass:       1.1973                 1.4444                 1.9649
 IR Intens:        4.725                  5.598                125.233
 Frequency:      1407.26                1463.41                1532.29
 Force Cnst:      1.2238                 1.3991                 2.0058
 Red. Mass:       1.0489                 1.1089                 1.4500
 IR Intens:       20.207                  7.086                 30.038
 Frequency:      1638.59                3154.43                3164.38
 Force Cnst:      1.7105                 6.1589                 6.2726
 Red. Mass:       1.0813                 1.0505                 1.0632
 IR Intens:       43.177                 10.602                  8.418
 Frequency:      3239.15                3262.94                3841.71
 Force Cnst:      6.9013                 7.0046                 9.2760
 Red. Mass:       1.1164                 1.1166                 1.0667
 IR Intens:        1.579                  9.409                 24.471

 STANDARD THERMODYNAMIC QUANTITIES AT   298.15 K  AND     1.00 ATM

   This Molecule has  1 Imaginary Frequencies
   Zero point vibrational energy:       45.382 kcal/mol

   Atom    1 Element C  Has Mass   12.00000
   Atom    2 Element C  Has Mass   12.00000
   Atom    3 Element H  Has Mass    1.00783
   Atom    4 Element H  Has Mass    1.00783
   Atom    5 Element H  Has Mass    1.00783
   Atom    6 Element O  Has Mass   15.99491
   Atom    7 Element H  Has Mass    1.00783
   Atom    8 Element H  Has Mass    1.00783
   Atom    9 Element H  Has Mass    1.00783
   Molecular Mass:    46.041890 amu
   Principal axes and moments of inertia in amu*Bohr^2:
                             1           2           3
    Eigenvalues --       65.99617   196.77626   234.12015
          X               0.91303     0.34614    -0.21577
          Y              -0.31994     0.93588     0.14753
          Z               0.25300    -0.06566     0.96523
   Rotational Symmetry Number is   1
   The Molecule is an Asymmetric Top
   Translational Enthalpy:        0.889 kcal/mol
   Rotational Enthalpy:           0.889 kcal/mol
   Vibrational Enthalpy:         46.196 kcal/mol
   gas constant (RT):             0.592 kcal/mol
   Translational Entropy:        37.406  cal/mol.K
   Rotational Entropy:           22.635  cal/mol.K
   Vibrational Entropy:           3.776  cal/mol.K

   Total Enthalpy:               48.566 kcal/mol
   Total Entropy:                63.817  cal/mol.K

 Total job time:  225.35s(wall), 851.01s(cpu)
        *  Thank you very much for using Q-Chem.  Have a nice day.  *
