 Q-Chem 5.2 (devel), Q-Chem, Inc., Pleasanton, CA (2019)
 Q-Chem 5.2.2 for Intel X86 EM64T Linux

User input:
--------------------------------------------------------------
$rem
   JOBTYPE  sp
   EXCHANGE   omegaB97X-D
   BASIS   6-311+G(2df,2pd)
   max_scf_cycles   250
   geom_opt_max_cycles   1500
   basis2 6-31G*
   scf_algorithm rca_diis
   SYM_IGNORE  TRUE
   print_input   true
   geom_opt_dmax   80
   pop_mulliken false
   XC_GRID 000075000302
$end

$molecule
0 1
C       1.2669324663     0.0262136852     0.2578969380
C       -0.0000005771     0.0000001771     -0.5888115150
H       1.4144475509     -0.8687355164     0.8729463075
H       1.1964647677     0.8787605476     0.9299092000
H       2.1593927642     -0.1208908568     -0.3511983350
C       -1.2669333356     -0.0262133592     0.2578959248
H       0.0265342257     -0.8734739767     -1.2446283519
H       -0.0265328504     0.8734743256     -1.2446284841
H       -1.1964662384     -0.8787559602     0.9299138966
H       -2.1593915498     0.1208900289     -0.3512024679
H       -1.4144472843     0.8687315708     0.8729519059
--------------------------------------------------------------

             Standard Nuclear Orientation (Angstroms)
    I     Atom           X                Y                Z
 ----------------------------------------------------------------
    1      C       1.2669324663     0.0262136852     0.2578969380
    2      C      -0.0000005771     0.0000001771    -0.5888115150
    3      H       1.4144475509    -0.8687355164     0.8729463075
    4      H       1.1964647677     0.8787605476     0.9299092000
    5      H       2.1593927642    -0.1208908568    -0.3511983350
    6      C      -1.2669333356    -0.0262133592     0.2578959248
    7      H       0.0265342257    -0.8734739767    -1.2446283519
    8      H      -0.0265328504     0.8734743256    -1.2446284841
    9      H      -1.1964662384    -0.8787559602     0.9299138966
   10      H      -2.1593915498     0.1208900289    -0.3512024679
   11      H      -1.4144472843     0.8687315708     0.8729519059
 ----------------------------------------------------------------

    7    -119.0887308504      5.25E-06 Convergence criterion met
    6    -119.1324117268      3.95E-06 Convergence criterion met
 Total energy in the final basis set = -119.13241173

                    Orbital Energies (a.u.)
 --------------------------------------------------------------

 Alpha MOs
 -- Occupied --
-10.2742 -10.2655 -10.2654  -0.8819  -0.7788  -0.6791  -0.5491  -0.5343
 -0.4808  -0.4535  -0.4301  -0.4159  -0.3927

                    Cartesian Multipole Moments
 -----------------------------------------------------------------
    Charge (ESU x 10^10)
                -0.0000
    Dipole Moment (Debye)
         X       0.0000      Y      -0.0000      Z      -0.0727
       Tot       0.0727
    Quadrupole Moments (Debye-Ang)
        XX     -22.1387     XY      -1.0762     YY     -21.4011
        XZ      -0.0000     YZ       0.0000     ZZ     -21.9142

 Total job time:  34.99s(wall), 97.50s(cpu)
        *  Thank you very much for using Q-Chem.  Have a nice day.  *
