 Q-Chem 5.2 (devel), Q-Chem, Inc., Pleasanton, CA (2019)
 Q-Chem 5.2.2 for Intel X86 EM64T Linux

User input:
--------------------------------------------------------------
$rem
   JOBTYPE  sp
   EXCHANGE   omegaB97X-D
   BASIS   6-311+G(2df,2pd)
   max_scf_cycles   250
   geom_opt_max_cycles   1500
   basis2 6-31G*
   scf_algorithm rca_diis
   SYM_IGNORE  TRUE
   print_input   true
   geom_opt_dmax   80
   pop_mulliken false
   XC_GRID 000075000302
$end

$molecule
0 1
C       1.3961693198     -0.0000004667     0.2626782448
C       -0.0000000863     0.0000019354     -0.3856746071
H       1.6046025603     -0.8844100127     0.8667393607
H       1.6046065972     0.8844078562     0.8667397600
H       2.1035609613     -0.0000027081     -0.5698530549
C       -1.3961695516     0.0000004031     0.2626780365
H       0.0000005053     -0.8592914958     -1.0629452727
H       -0.0000002415     0.8592967543     -1.0629435246
H       -1.6046016605     -0.8844071584     0.8667424188
H       -2.1035613727     -0.0000051410     -0.5698529247
H       -1.6046070919     0.8844106997     0.8667365822
--------------------------------------------------------------

             Standard Nuclear Orientation (Angstroms)
    I     Atom           X                Y                Z
 ----------------------------------------------------------------
    1      C       1.3961693198    -0.0000004667     0.2626782448
    2      C      -0.0000000863     0.0000019354    -0.3856746071
    3      H       1.6046025603    -0.8844100127     0.8667393607
    4      H       1.6046065972     0.8844078562     0.8667397600
    5      H       2.1035609613    -0.0000027081    -0.5698530549
    6      C      -1.3961695516     0.0000004031     0.2626780365
    7      H       0.0000005053    -0.8592914958    -1.0629452727
    8      H      -0.0000002415     0.8592967543    -1.0629435246
    9      H      -1.6046016605    -0.8844071584     0.8667424188
   10      H      -2.1035613727    -0.0000051410    -0.5698529247
   11      H      -1.6046070919     0.8844106997     0.8667365822
 ----------------------------------------------------------------

    7    -119.0921404542      4.14E-06 Convergence criterion met
    6    -119.1350945172      4.17E-06 Convergence criterion met
 Total energy in the final basis set = -119.13509452

                    Orbital Energies (a.u.)
 --------------------------------------------------------------

 Alpha MOs
 -- Occupied --
-10.2764 -10.2688 -10.2688  -0.8740  -0.7866  -0.6737  -0.5396  -0.5128
 -0.4934  -0.4719  -0.4263  -0.4026  -0.4018

                    Cartesian Multipole Moments
 -----------------------------------------------------------------
    Charge (ESU x 10^10)
                 0.0000
    Dipole Moment (Debye)
         X       0.0000      Y      -0.0000      Z      -0.1524
       Tot       0.1524
    Quadrupole Moments (Debye-Ang)
        XX     -21.9755     XY      -0.0000     YY     -21.4233
        XZ       0.0000     YZ       0.0000     ZZ     -21.7776

 Total job time:  33.73s(wall), 94.33s(cpu)
        *  Thank you very much for using Q-Chem.  Have a nice day.  *
