 Q-Chem 5.3 (devel), Q-Chem, Inc., Pleasanton, CA (2020)
 Q-Chem 5.3.0 for Intel X86 EM64T Linux

User input:
--------------------------------------------------------------
$rem
   JOBTYPE  sp
   EXCHANGE   omegaB97X-D
   BASIS   6-311+G(2df,2pd)
   max_scf_cycles   250
   geom_opt_max_cycles   1500
   basis2 6-31G*
   scf_algorithm rca_diis
   SYM_IGNORE  TRUE
   print_input   true
   geom_opt_dmax   80
   pop_mulliken false
   XC_GRID 000075000302
$end

$molecule
0 1
C       1.2649813929     -0.1420677380     0.1908513662
C       -0.0000008000     0.4605587329     -0.4086320759
H       1.0626859350     -0.2980581669     1.2545476235
H       2.1575420725     0.4782736161     0.1123324230
H       1.4909996801     -1.1151528366     -0.2463480597
C       -1.2649805856     -0.1420743379     0.1908504300
H       0.0000002564     0.1399512184     -1.4526563386
H       -0.0000038488     1.5535356953     -0.4204217042
H       -1.0626756333     -0.2981036486     1.2545388019
H       -1.4910141163     -1.1151422319     -0.2463798434
H       -2.1575344136     0.4782803631     0.1123623960
$end
--------------------------------------------------------------

             Standard Nuclear Orientation (Angstroms)
    I     Atom           X                Y                Z
 ----------------------------------------------------------------
    1      C       1.2649813929    -0.1420677380     0.1908513662
    2      C      -0.0000008000     0.4605587329    -0.4086320759
    3      H       1.0626859350    -0.2980581669     1.2545476235
    4      H       2.1575420725     0.4782736161     0.1123324230
    5      H       1.4909996801    -1.1151528366    -0.2463480597
    6      C      -1.2649805856    -0.1420743379     0.1908504300
    7      H       0.0000002564     0.1399512184    -1.4526563386
    8      H      -0.0000038488     1.5535356953    -0.4204217042
    9      H      -1.0626756333    -0.2981036486     1.2545388019
   10      H      -1.4910141163    -1.1151422319    -0.2463798434
   11      H      -2.1575344136     0.4782803631     0.1123623960
 ----------------------------------------------------------------

    7    -119.0944740060      4.38E-06 Convergence criterion met
    6    -119.1378176786      4.11E-06 Convergence criterion met
 Total energy in the final basis set = -119.13781768

                    Orbital Energies (a.u.)
 --------------------------------------------------------------

 Alpha MOs
 -- Occupied --
-10.2731 -10.2653 -10.2653  -0.8829  -0.7763  -0.6784  -0.5471  -0.5310
 -0.4756  -0.4623  -0.4255  -0.4172  -0.3994

                    Cartesian Multipole Moments
 -----------------------------------------------------------------
    Charge (ESU x 10^10)
                -0.0000
    Dipole Moment (Debye)
         X      -0.0000      Y       0.0240      Z      -0.0946
       Tot       0.0976
    Quadrupole Moments (Debye-Ang)
        XX     -21.9638     XY      -0.0000     YY     -21.4485
        XZ      -0.0000     YZ       0.3989     ZZ     -21.9836

 Total job time:  28.73s(wall), 76.92s(cpu)
        *  Thank you very much for using Q-Chem.  Have a nice day.  *
