 Q-Chem 5.2 (devel), Q-Chem, Inc., Pleasanton, CA (2019)
 Q-Chem 5.2.2 for Intel X86 EM64T Linux

User input:
--------------------------------------------------------------
$rem
   JOBTYPE  sp
   EXCHANGE   omegaB97X-D
   BASIS   6-311+G(2df,2pd)
   max_scf_cycles   250
   geom_opt_max_cycles   1500
   basis2 6-31G*
   scf_algorithm rca_diis
   SYM_IGNORE  TRUE
   print_input   true
   geom_opt_dmax   80
   pop_mulliken false
   XC_GRID 000075000302
$end

$molecule
0 1
C       1.2552073773     -0.2485526590     -0.0376593753
C       -0.0000030076     0.5713158703     0.2361784592
H       2.0273914654     0.4201229799     0.3617496837
H       1.5374700479     -0.5216652443     -1.0512023703
H       1.2752707455     -1.1523047456     0.5722469283
C       -1.2552083676     -0.2485581900     -0.0376690502
H       -0.0000013394     1.1756155810     -0.6728146853
H       -0.0000081029     1.2579203642     1.0874470617
H       -2.0273969020     0.4200621660     0.3618216232
H       -1.2752211184     -1.1523576155     0.5721695012
H       -1.5375008588     -0.5215978410     -1.0512227574
--------------------------------------------------------------

             Standard Nuclear Orientation (Angstroms)
    I     Atom           X                Y                Z
 ----------------------------------------------------------------
    1      C       1.2552073773    -0.2485526590    -0.0376593753
    2      C      -0.0000030076     0.5713158703     0.2361784592
    3      H       2.0273914654     0.4201229799     0.3617496837
    4      H       1.5374700479    -0.5216652443    -1.0512023703
    5      H       1.2752707455    -1.1523047456     0.5722469283
    6      C      -1.2552083676    -0.2485581900    -0.0376690502
    7      H      -0.0000013394     1.1756155810    -0.6728146853
    8      H      -0.0000081029     1.2579203642     1.0874470617
    9      H      -2.0273969020     0.4200621660     0.3618216232
   10      H      -1.2752211184    -1.1523576155     0.5721695012
   11      H      -1.5375008588    -0.5215978410    -1.0512227574
 ----------------------------------------------------------------

    7    -119.0762433688      5.79E-06 Convergence criterion met
    5    -119.1200032780      9.23E-06 Convergence criterion met
 Total energy in the final basis set = -119.12000328

                    Orbital Energies (a.u.)
 --------------------------------------------------------------

 Alpha MOs
 -- Occupied --
-10.2756 -10.2633 -10.2633  -0.8844  -0.7782  -0.6768  -0.5473  -0.5186
 -0.4986  -0.4639  -0.4404  -0.3908  -0.3877

                    Cartesian Multipole Moments
 -----------------------------------------------------------------
    Charge (ESU x 10^10)
                -0.0000
    Dipole Moment (Debye)
         X       0.0000      Y       0.2129      Z      -0.0631
       Tot       0.2221
    Quadrupole Moments (Debye-Ang)
        XX     -22.8934     XY      -0.0000     YY     -21.6801
        XZ      -0.0000     YZ       0.5731     ZZ     -21.0377

 Total job time:  38.42s(wall), 104.65s(cpu)
        *  Thank you very much for using Q-Chem.  Have a nice day.  *
