 Q-Chem 5.2 (devel), Q-Chem, Inc., Pleasanton, CA (2019)
 Q-Chem 5.2.2 for Intel X86 EM64T Linux

User input:
--------------------------------------------------------------
$rem
   JOBTYPE  sp
   EXCHANGE   omegaB97X-D
   BASIS   6-311+G(2df,2pd)
   max_scf_cycles   250
   geom_opt_max_cycles   1500
   basis2 6-31G*
   scf_algorithm rca_diis
   SYM_IGNORE  TRUE
   print_input   true
   geom_opt_dmax   80
   pop_mulliken false
   XC_GRID 000075000302
$end

$molecule
0 1
C       1.2653701586     0.1298118427     0.2025640249
C       -0.0000007124     -0.4273431669     -0.4386378901
H       2.1149127530     -0.5530679095     0.2079458155
H       1.0206415716     0.3615119429     1.2431050740
H       1.5815941149     1.0575928085     -0.2753091919
C       -1.2653693300     0.1298187522     0.2025619424
H       -0.0000033805     -1.5177030319     -0.5145773220
H       0.0000011453     -0.0466827982     -1.4623398197
H       -2.1149028807     -0.5530725150     0.2079718350
H       -1.5816095495     1.0575824575     -0.2753336568
H       -1.0206339506     0.3615522837     1.2430942077
--------------------------------------------------------------

             Standard Nuclear Orientation (Angstroms)
    I     Atom           X                Y                Z
 ----------------------------------------------------------------
    1      C       1.2653701586     0.1298118427     0.2025640249
    2      C      -0.0000007124    -0.4273431669    -0.4386378901
    3      H       2.1149127530    -0.5530679095     0.2079458155
    4      H       1.0206415716     0.3615119429     1.2431050740
    5      H       1.5815941149     1.0575928085    -0.2753091919
    6      C      -1.2653693300     0.1298187522     0.2025619424
    7      H      -0.0000033805    -1.5177030319    -0.5145773220
    8      H       0.0000011453    -0.0466827982    -1.4623398197
    9      H      -2.1149028807    -0.5530725150     0.2079718350
   10      H      -1.5816095495     1.0575824575    -0.2753336568
   11      H      -1.0206339506     0.3615522837     1.2430942077
 ----------------------------------------------------------------

    7    -119.0924513151      4.27E-06 Convergence criterion met
    6    -119.1358994770      4.11E-06 Convergence criterion met
 Total energy in the final basis set = -119.13589948

                    Orbital Energies (a.u.)
 --------------------------------------------------------------

 Alpha MOs
 -- Occupied --
-10.2725 -10.2647 -10.2647  -0.8828  -0.7760  -0.6785  -0.5463  -0.5319
 -0.4744  -0.4641  -0.4228  -0.4168  -0.3998

                    Cartesian Multipole Moments
 -----------------------------------------------------------------
    Charge (ESU x 10^10)
                 0.0000
    Dipole Moment (Debye)
         X      -0.0000      Y      -0.0219      Z      -0.0951
       Tot       0.0976
    Quadrupole Moments (Debye-Ang)
        XX     -22.0526     XY       0.0000     YY     -21.4202
        XZ      -0.0000     YZ      -0.3877     ZZ     -21.9412

 Total job time:  34.76s(wall), 97.00s(cpu)
        *  Thank you very much for using Q-Chem.  Have a nice day.  *
