 Q-Chem 5.2 (devel), Q-Chem, Inc., Pleasanton, CA (2019)
 Q-Chem 5.2.2 for Intel X86 EM64T Linux

User input:
--------------------------------------------------------------
$rem
   JOBTYPE  sp
   EXCHANGE   omegaB97X-D
   BASIS   6-311+G(2df,2pd)
   max_scf_cycles   250
   geom_opt_max_cycles   1500
   basis2 6-31G*
   scf_algorithm rca_diis
   SYM_IGNORE  TRUE
   print_input   true
   geom_opt_dmax   80
   pop_mulliken false
   XC_GRID 000075000302
$end

$molecule
0 1
C       1.2373387099     -0.0000000038     0.2098345538
C       -0.1000909436     0.0000000011     -0.5810354669
H       1.3128202252     -0.8481769318     0.8977850116
H       1.3128202159     0.8481769244     0.8977850120
H       2.1631414561     0.0000000036     -0.3684721665
C       -1.3019737239     -0.0000000196     0.3069356989
H       0.0775218536     -0.8590730667     -1.2323447226
H       0.0775217616     0.8590730518     -1.2323447780
H       -1.3097637996     -0.9108366595     0.9038487435
H       -2.1595719847     0.0000007136     -0.3647956610
H       -1.3097638311     0.9108366530     0.9038487941
--------------------------------------------------------------

             Standard Nuclear Orientation (Angstroms)
    I     Atom           X                Y                Z
 ----------------------------------------------------------------
    1      C       1.2373387099    -0.0000000038     0.2098345538
    2      C      -0.1000909436     0.0000000011    -0.5810354669
    3      H       1.3128202252    -0.8481769318     0.8977850116
    4      H       1.3128202159     0.8481769244     0.8977850120
    5      H       2.1631414561     0.0000000036    -0.3684721665
    6      C      -1.3019737239    -0.0000000196     0.3069356989
    7      H       0.0775218536    -0.8590730667    -1.2323447226
    8      H       0.0775217616     0.8590730518    -1.2323447780
    9      H      -1.3097637996    -0.9108366595     0.9038487435
   10      H      -2.1595719847     0.0000007136    -0.3647956610
   11      H      -1.3097638311     0.9108366530     0.9038487941
 ----------------------------------------------------------------

    7    -119.0902721013      5.10E-06 Convergence criterion met
    5    -119.1336968039      9.88E-06 Convergence criterion met
 Total energy in the final basis set = -119.13369680

                    Orbital Energies (a.u.)
 --------------------------------------------------------------

 Alpha MOs
 -- Occupied --
-10.2747 -10.2692 -10.2622  -0.8835  -0.7793  -0.6790  -0.5467  -0.5244
 -0.4874  -0.4647  -0.4290  -0.4023  -0.4021

                    Cartesian Multipole Moments
 -----------------------------------------------------------------
    Charge (ESU x 10^10)
                 0.0000
    Dipole Moment (Debye)
         X      -0.0411      Y       0.0000      Z      -0.0710
       Tot       0.0820
    Quadrupole Moments (Debye-Ang)
        XX     -22.1402     XY      -0.0000     YY     -21.4402
        XZ      -0.2584     YZ      -0.0000     ZZ     -21.9020

 Total job time:  32.07s(wall), 88.80s(cpu)
        *  Thank you very much for using Q-Chem.  Have a nice day.  *
