 Q-Chem 5.3 (devel), Q-Chem, Inc., Pleasanton, CA (2020)
 Q-Chem 5.3.0 for Intel X86 EM64T Linux

User input:
--------------------------------------------------------------
$rem
   JOBTYPE  sp
   EXCHANGE   omegaB97X-D
   BASIS   6-311+G(2df,2pd)
   max_scf_cycles   250
   geom_opt_max_cycles   1500
   basis2 6-31G*
   scf_algorithm rca_diis
   SYM_IGNORE  TRUE
   print_input   true
   geom_opt_dmax   80
   pop_mulliken false
   XC_GRID 000075000302
$end

$molecule
0 1
C       1.2504518746     -0.2450529071     -0.0959067471
C       -0.0000025910     0.4306305014     0.4541218069
H       1.8935878221     0.6397884046     -0.1875481533
H       1.2678513450     -0.7782066863     -1.0418969299
H       1.7107837790     -0.8849318939     0.6575992720
C       -1.2504505178     -0.2450553793     -0.0959204754
H       -0.0000001992     1.2673735917     -0.2464882889
H       -0.0000088992     0.8388440789     1.4689537525
H       -1.8936367844     0.6397586301     -0.1874602309
H       -1.7107209059     -0.8850231294     0.6575484532
H       -1.2678549838     -0.7781245448     -1.0419574402
$end
--------------------------------------------------------------

             Standard Nuclear Orientation (Angstroms)
    I     Atom           X                Y                Z
 ----------------------------------------------------------------
    1      C       1.2504518746    -0.2450529071    -0.0959067471
    2      C      -0.0000025910     0.4306305014     0.4541218069
    3      H       1.8935878221     0.6397884046    -0.1875481533
    4      H       1.2678513450    -0.7782066863    -1.0418969299
    5      H       1.7107837790    -0.8849318939     0.6575992720
    6      C      -1.2504505178    -0.2450553793    -0.0959204754
    7      H      -0.0000001992     1.2673735917    -0.2464882889
    8      H      -0.0000088992     0.8388440789     1.4689537525
    9      H      -1.8936367844     0.6397586301    -0.1874602309
   10      H      -1.7107209059    -0.8850231294     0.6575484532
   11      H      -1.2678549838    -0.7781245448    -1.0419574402
 ----------------------------------------------------------------

    7    -119.0620597717      6.70E-06 Convergence criterion met
    5    -119.1063650943      9.08E-06 Convergence criterion met
 Total energy in the final basis set = -119.10636509

                    Orbital Energies (a.u.)
 --------------------------------------------------------------

 Alpha MOs
 -- Occupied --
-10.2756 -10.2622 -10.2622  -0.8863  -0.7784  -0.6757  -0.5486  -0.5113
 -0.5013  -0.4652  -0.4526  -0.3817  -0.3782

                    Cartesian Multipole Moments
 -----------------------------------------------------------------
    Charge (ESU x 10^10)
                -0.0000
    Dipole Moment (Debye)
         X      -0.0000      Y       0.2070      Z      -0.0156
       Tot       0.2076
    Quadrupole Moments (Debye-Ang)
        XX     -23.3730     XY      -0.0000     YY     -21.6274
        XZ       0.0000     YZ       0.5353     ZZ     -20.7357

 Total job time:  25.54s(wall), 68.34s(cpu)
        *  Thank you very much for using Q-Chem.  Have a nice day.  *
