 Q-Chem 5.2 (devel), Q-Chem, Inc., Pleasanton, CA (2019)
 Q-Chem 5.2.2 for Intel X86 EM64T Linux

User input:
--------------------------------------------------------------
$rem
   JOBTYPE  sp
   EXCHANGE   omegaB97X-D
   BASIS   6-311+G(2df,2pd)
   max_scf_cycles   250
   geom_opt_max_cycles   1500
   basis2 6-31G*
   scf_algorithm rca_diis
   SYM_IGNORE  TRUE
   print_input   true
   geom_opt_dmax   80
   pop_mulliken false
   XC_GRID 000075000302
$end

$molecule
0 1
C       1.2684686656     -0.0000007602     0.2595296828
C       0.0000004338     -0.0000002136     -0.5792562904
H       1.2964926026     -0.8538412196     0.9407699703
H       1.2964952989     0.8538402846     0.9407693072
H       2.1494078373     0.0000023529     -0.3802369257
C       -1.2684678781     0.0000005114     0.2595303893
H       -0.0000004109     -0.8237508232     -1.3006798461
H       -0.0000004561     0.8237505334     -1.3006796710
H       -1.2964947841     -0.8538435615     0.9407660302
H       -2.1494088026     -0.0000007322     -0.3802340559
H       -1.2964925669     0.8538442941     0.9407664282
--------------------------------------------------------------

             Standard Nuclear Orientation (Angstroms)
    I     Atom           X                Y                Z
 ----------------------------------------------------------------
    1      C       1.2684686656    -0.0000007602     0.2595296828
    2      C       0.0000004338    -0.0000002136    -0.5792562904
    3      H       1.2964926026    -0.8538412196     0.9407699703
    4      H       1.2964952989     0.8538402846     0.9407693072
    5      H       2.1494078373     0.0000023529    -0.3802369257
    6      C      -1.2684678781     0.0000005114     0.2595303893
    7      H      -0.0000004109    -0.8237508232    -1.3006798461
    8      H      -0.0000004561     0.8237505334    -1.3006796710
    9      H      -1.2964947841    -0.8538435615     0.9407660302
   10      H      -2.1494088026    -0.0000007322    -0.3802340559
   11      H      -1.2964925669     0.8538442941     0.9407664282
 ----------------------------------------------------------------

    7    -119.0994872181      4.55E-06 Convergence criterion met
    6    -119.1426292448      4.00E-06 Convergence criterion met
 Total energy in the final basis set = -119.14262924

                    Orbital Energies (a.u.)
 --------------------------------------------------------------

 Alpha MOs
 -- Occupied --
-10.2739 -10.2658 -10.2658  -0.8812  -0.7777  -0.6825  -0.5341  -0.5287
 -0.4927  -0.4550  -0.4318  -0.4183  -0.3955

                    Cartesian Multipole Moments
 -----------------------------------------------------------------
    Charge (ESU x 10^10)
                -0.0000
    Dipole Moment (Debye)
         X      -0.0000      Y       0.0000      Z      -0.0821
       Tot       0.0821
    Quadrupole Moments (Debye-Ang)
        XX     -22.2072     XY       0.0000     YY     -21.8969
        XZ       0.0000     YZ      -0.0000     ZZ     -21.2227

 Total job time:  34.19s(wall), 95.63s(cpu)
        *  Thank you very much for using Q-Chem.  Have a nice day.  *
