 Q-Chem 5.3 (devel), Q-Chem, Inc., Pleasanton, CA (2020)
 Q-Chem 5.3.0 for Intel X86 EM64T Linux

User input:
--------------------------------------------------------------
$rem
   JOBTYPE  sp
   EXCHANGE   omegaB97X-D
   BASIS   6-311+G(2df,2pd)
   max_scf_cycles   250
   geom_opt_max_cycles   1500
   basis2 6-31G*
   scf_algorithm rca_diis
   SYM_IGNORE  TRUE
   print_input   true
   geom_opt_dmax   80
   pop_mulliken false
   XC_GRID 000075000302
$end

$molecule
0 1
C       1.2684686504     -0.0000007644     0.2595296727
C       0.0000004338     -0.0000002185     -0.5792563250
H       1.2964925783     -0.8538412208     0.9407699571
H       1.2964952636     0.8538402766     0.9407692948
H       2.1494078377     0.0000023648     -0.3802369201
C       -1.2684678629     0.0000005134     0.2595303793
H       -0.0000004073     -0.8237507605     -1.3006798007
H       -0.0000004596     0.8237504650     -1.3006796216
H       -1.2964947575     -0.8538435548     0.9407660188
H       -2.1494088030     -0.0000007289     -0.3802340503
H       -1.2964925339     0.8538442942     0.9407664140
$end
--------------------------------------------------------------

             Standard Nuclear Orientation (Angstroms)
    I     Atom           X                Y                Z
 ----------------------------------------------------------------
    1      C       1.2684686504    -0.0000007644     0.2595296727
    2      C       0.0000004338    -0.0000002185    -0.5792563250
    3      H       1.2964925783    -0.8538412208     0.9407699571
    4      H       1.2964952636     0.8538402766     0.9407692948
    5      H       2.1494078377     0.0000023648    -0.3802369201
    6      C      -1.2684678629     0.0000005134     0.2595303793
    7      H      -0.0000004073    -0.8237507605    -1.3006798007
    8      H      -0.0000004596     0.8237504650    -1.3006796216
    9      H      -1.2964947575    -0.8538435548     0.9407660188
   10      H      -2.1494088030    -0.0000007289    -0.3802340503
   11      H      -1.2964925339     0.8538442942     0.9407664140
 ----------------------------------------------------------------

    7    -119.0994872173      4.55E-06 Convergence criterion met
    6    -119.1426292452      4.00E-06 Convergence criterion met
 Total energy in the final basis set = -119.14262925

                    Orbital Energies (a.u.)
 --------------------------------------------------------------

 Alpha MOs
 -- Occupied --
-10.2739 -10.2658 -10.2658  -0.8812  -0.7777  -0.6825  -0.5341  -0.5287
 -0.4927  -0.4550  -0.4318  -0.4183  -0.3955

                    Cartesian Multipole Moments
 -----------------------------------------------------------------
    Charge (ESU x 10^10)
                -0.0000
    Dipole Moment (Debye)
         X      -0.0000      Y       0.0000      Z      -0.0821
       Tot       0.0821
    Quadrupole Moments (Debye-Ang)
        XX     -22.2072     XY       0.0000     YY     -21.8969
        XZ       0.0000     YZ      -0.0000     ZZ     -21.2227

 Total job time:  26.39s(wall), 72.20s(cpu)
        *  Thank you very much for using Q-Chem.  Have a nice day.  *
