 Q-Chem 5.3 (devel), Q-Chem, Inc., Pleasanton, CA (2020)
 Q-Chem 5.3.0 for Intel X86 EM64T Linux

User input:
--------------------------------------------------------------
$rem
   JOBTYPE  sp
   EXCHANGE   omegaB97X-D
   BASIS   6-311+G(2df,2pd)
   max_scf_cycles   250
   geom_opt_max_cycles   1500
   basis2 6-31G*
   scf_algorithm rca_diis
   SYM_IGNORE  TRUE
   print_input   true
   geom_opt_dmax   80
   pop_mulliken false
   XC_GRID 000075000302
$end

$molecule
0 1
C       1.1598892760     -0.5102607411     0.2656169273
C       0.0000021655     0.0000116540     -0.5811430223
H       2.0983827817     -0.1568469783     -0.1583674275
H       1.2042465092     -1.6037958044     0.2995160142
H       1.1020858268     -0.1414032072     1.2901778439
C       -1.1598907593     0.5102543910     0.2656270806
H       -0.2613112315     -0.8347205779     -1.2358895948
H       0.2613195526     0.8347678362     -1.2358583535
H       -1.2043035054     1.6037874493     0.2994940700
H       -1.1020453540     0.1414259033     1.2901961469
H       -2.0983753222     0.1567807410     -0.1583246657
$end
--------------------------------------------------------------

             Standard Nuclear Orientation (Angstroms)
    I     Atom           X                Y                Z
 ----------------------------------------------------------------
    1      C       1.1598892760    -0.5102607411     0.2656169273
    2      C       0.0000021655     0.0000116540    -0.5811430223
    3      H       2.0983827817    -0.1568469783    -0.1583674275
    4      H       1.2042465092    -1.6037958044     0.2995160142
    5      H       1.1020858268    -0.1414032072     1.2901778439
    6      C      -1.1598907593     0.5102543910     0.2656270806
    7      H      -0.2613112315    -0.8347205779    -1.2358895948
    8      H       0.2613195526     0.8347678362    -1.2358583535
    9      H      -1.2043035054     1.6037874493     0.2994940700
   10      H      -1.1020453540     0.1414259033     1.2901961469
   11      H      -2.0983753222     0.1567807410    -0.1583246657
 ----------------------------------------------------------------

    7    -119.0915572571      4.37E-06 Convergence criterion met
    6    -119.1348735507      3.92E-06 Convergence criterion met
 Total energy in the final basis set = -119.13487355

                    Orbital Energies (a.u.)
 --------------------------------------------------------------

 Alpha MOs
 -- Occupied --
-10.2719 -10.2636 -10.2635  -0.8810  -0.7768  -0.6773  -0.5444  -0.5262
 -0.4797  -0.4699  -0.4214  -0.4161  -0.3934

                    Cartesian Multipole Moments
 -----------------------------------------------------------------
    Charge (ESU x 10^10)
                 0.0000
    Dipole Moment (Debye)
         X      -0.0000      Y      -0.0000      Z      -0.0991
       Tot       0.0991
    Quadrupole Moments (Debye-Ang)
        XX     -22.3984     XY       0.2367     YY     -21.2147
        XZ       0.0000     YZ       0.0000     ZZ     -21.8226

 Total job time:  26.63s(wall), 72.79s(cpu)
        *  Thank you very much for using Q-Chem.  Have a nice day.  *
