 Q-Chem 5.2 (devel), Q-Chem, Inc., Pleasanton, CA (2019)
 Q-Chem 5.2.2 for Intel X86 EM64T Linux

User input:
--------------------------------------------------------------
$rem
   JOBTYPE  sp
   EXCHANGE   omegaB97X-D
   BASIS   6-311+G(2df,2pd)
   max_scf_cycles   250
   geom_opt_max_cycles   1500
   basis2 6-31G*
   scf_algorithm rca_diis
   SYM_IGNORE  TRUE
   print_input   true
   geom_opt_dmax   80
   pop_mulliken false
   XC_GRID 000075000302
$end

$molecule
0 1
C       1.2524493954     0.2485929551     -0.0750552104
C       -0.0000035691     -0.4962179607     0.3714340792
H       1.3495241496     0.6762340015     -1.0690396577
H       1.9899830779     -0.5578415891     0.0243144199
H       1.5301780655     1.0154831850     0.6487587037
C       -1.2524478733     0.2485993940     -0.0750665730
H       -0.0000086773     -1.0206061789     1.3313145900
H       -0.0000016991     -1.2481650890     -0.4196137695
H       -1.3495360678     0.6761546180     -1.0690876227
H       -1.5301243754     1.0155634627     0.6486884173
H       -1.9900124870     -0.5577961325     0.0243976422
--------------------------------------------------------------

             Standard Nuclear Orientation (Angstroms)
    I     Atom           X                Y                Z
 ----------------------------------------------------------------
    1      C       1.2524493954     0.2485929551    -0.0750552104
    2      C      -0.0000035691    -0.4962179607     0.3714340792
    3      H       1.3495241496     0.6762340015    -1.0690396577
    4      H       1.9899830779    -0.5578415891     0.0243144199
    5      H       1.5301780655     1.0154831850     0.6487587037
    6      C      -1.2524478733     0.2485993940    -0.0750665730
    7      H      -0.0000086773    -1.0206061789     1.3313145900
    8      H      -0.0000016991    -1.2481650890    -0.4196137695
    9      H      -1.3495360678     0.6761546180    -1.0690876227
   10      H      -1.5301243754     1.0155634627     0.6486884173
   11      H      -1.9900124870    -0.5577961325     0.0243976422
 ----------------------------------------------------------------

    7    -119.0710998493      6.52E-06 Convergence criterion met
    5    -119.1149606437      9.07E-06 Convergence criterion met
 Total energy in the final basis set = -119.11496064

                    Orbital Energies (a.u.)
 --------------------------------------------------------------

 Alpha MOs
 -- Occupied --
-10.2765 -10.2629 -10.2628  -0.8854  -0.7785  -0.6763  -0.5474  -0.5128
 -0.5014  -0.4650  -0.4496  -0.3842  -0.3840

                    Cartesian Multipole Moments
 -----------------------------------------------------------------
    Charge (ESU x 10^10)
                -0.0000
    Dipole Moment (Debye)
         X       0.0000      Y      -0.2135      Z      -0.0362
       Tot       0.2165
    Quadrupole Moments (Debye-Ang)
        XX     -23.2050     XY       0.0000     YY     -21.6578
        XZ      -0.0000     YZ      -0.5975     ZZ     -20.8219

 Total job time:  37.41s(wall), 102.87s(cpu)
        *  Thank you very much for using Q-Chem.  Have a nice day.  *
