 Q-Chem 5.3 (devel), Q-Chem, Inc., Pleasanton, CA (2020)
 Q-Chem 5.3.0 for Intel X86 EM64T Linux

User input:
--------------------------------------------------------------
$rem
   JOBTYPE  sp
   EXCHANGE   omegaB97X-D
   BASIS   6-311+G(2df,2pd)
   max_scf_cycles   250
   geom_opt_max_cycles   1500
   basis2 6-31G*
   scf_algorithm rca_diis
   SYM_IGNORE  TRUE
   print_input   true
   geom_opt_dmax   80
   pop_mulliken false
   XC_GRID 000075000302
$end

$molecule
0 1
C       1.2616903717     -0.0000000224     0.2451227685
C       -0.0000005814     -0.0000000956     -0.5961402185
H       1.3073981228     -0.9527067320     0.9458341143
H       1.3073980450     0.9527066261     0.9458340994
H       2.2257108176     0.0000000137     -0.4131289516
C       -1.2616917484     -0.0000002295     0.2451236974
H       -0.0000007162     -0.8769039901     -1.2550679892
H       -0.0000008354     0.8769040337     -1.2550681199
H       -1.3073985047     -0.9526998073     0.9458295672
H       -2.2257064308     0.0000005492     -0.4131241019
H       -1.3073986010     0.9527003201     0.9458301533
$end
--------------------------------------------------------------

             Standard Nuclear Orientation (Angstroms)
    I     Atom           X                Y                Z
 ----------------------------------------------------------------
    1      C       1.2616903717    -0.0000000224     0.2451227685
    2      C      -0.0000005814    -0.0000000956    -0.5961402185
    3      H       1.3073981228    -0.9527067320     0.9458341143
    4      H       1.3073980450     0.9527066261     0.9458340994
    5      H       2.2257108176     0.0000000137    -0.4131289516
    6      C      -1.2616917484    -0.0000002295     0.2451236974
    7      H      -0.0000007162    -0.8769039901    -1.2550679892
    8      H      -0.0000008354     0.8769040337    -1.2550681199
    9      H      -1.3073985047    -0.9526998073     0.9458295672
   10      H      -2.2257064308     0.0000005492    -0.4131241019
   11      H      -1.3073986010     0.9527003201     0.9458301533
 ----------------------------------------------------------------

    7    -119.0816716120      1.27E-06 Convergence criterion met
    5    -119.1224415732      7.09E-06 Convergence criterion met
 Total energy in the final basis set = -119.12244157

                    Orbital Energies (a.u.)
 --------------------------------------------------------------

 Alpha MOs
 -- Occupied --
-10.2936 -10.2936 -10.2799  -0.8791  -0.7587  -0.6651  -0.5409  -0.5176
 -0.4737  -0.4461  -0.4156  -0.4149  -0.4014

                    Cartesian Multipole Moments
 -----------------------------------------------------------------
    Charge (ESU x 10^10)
                 0.0000
    Dipole Moment (Debye)
         X      -0.0000      Y      -0.0000      Z      -0.2349
       Tot       0.2349
    Quadrupole Moments (Debye-Ang)
        XX     -22.8259     XY       0.0000     YY     -21.7410
        XZ      -0.0000     YZ      -0.0000     ZZ     -22.2197

 Total job time:  24.84s(wall), 66.91s(cpu)
        *  Thank you very much for using Q-Chem.  Have a nice day.  *
