 Q-Chem 5.3 (devel), Q-Chem, Inc., Pleasanton, CA (2020)
 Q-Chem 5.3.0 for Intel X86 EM64T Linux

User input:
--------------------------------------------------------------
$rem
   JOBTYPE  sp
   EXCHANGE   omegaB97X-D
   BASIS   6-311+G(2df,2pd)
   max_scf_cycles   250
   geom_opt_max_cycles   1500
   basis2 6-31G*
   scf_algorithm rca_diis
   SYM_IGNORE  TRUE
   print_input   true
   geom_opt_dmax   80
   pop_mulliken false
   XC_GRID 000075000302
$end

$molecule
0 1
C       1.2670966311     -0.0045200255     0.2593010706
C       0.0000000020     0.0280041477     -0.5869429890
H       1.3041768902     -0.8492366714     0.8655409787
H       1.3062206324     0.9115078269     0.9423540078
H       2.1644979986     0.0073532134     -0.3600955646
C       -1.2670966256     -0.0045196368     0.2593011061
H       -0.0000000340     -0.9527129745     -1.3288276749
H       -0.0000000381     0.7945005111     -1.1573852444
H       -1.3041770047     -0.8492371113     0.8655415675
H       -2.1644980165     0.0073541698     -0.3600955339
H       -1.3062204961     0.9115072166     0.9423532951
$end
--------------------------------------------------------------

             Standard Nuclear Orientation (Angstroms)
    I     Atom           X                Y                Z
 ----------------------------------------------------------------
    1      C       1.2670966311    -0.0045200255     0.2593010706
    2      C       0.0000000020     0.0280041477    -0.5869429890
    3      H       1.3041768902    -0.8492366714     0.8655409787
    4      H       1.3062206324     0.9115078269     0.9423540078
    5      H       2.1644979986     0.0073532134    -0.3600955646
    6      C      -1.2670966256    -0.0045196368     0.2593011061
    7      H      -0.0000000340    -0.9527129745    -1.3288276749
    8      H      -0.0000000381     0.7945005111    -1.1573852444
    9      H      -1.3041770047    -0.8492371113     0.8655415675
   10      H      -2.1644980165     0.0073541698    -0.3600955339
   11      H      -1.3062204961     0.9115072166     0.9423532951
 ----------------------------------------------------------------

    7    -119.0727545957      5.18E-06 Convergence criterion met
    6    -119.1169197493      4.03E-06 Convergence criterion met
 Total energy in the final basis set = -119.11691975

                    Orbital Energies (a.u.)
 --------------------------------------------------------------

 Alpha MOs
 -- Occupied --
-10.2729 -10.2655 -10.2655  -0.8840  -0.7785  -0.6861  -0.5448  -0.5231
 -0.4881  -0.4595  -0.4317  -0.4195  -0.3952

                    Cartesian Multipole Moments
 -----------------------------------------------------------------
    Charge (ESU x 10^10)
                -0.0000
    Dipole Moment (Debye)
         X      -0.0000      Y       0.0456      Z      -0.0480
       Tot       0.0662
    Quadrupole Moments (Debye-Ang)
        XX     -22.1160     XY      -0.0000     YY     -21.3787
        XZ      -0.0000     YZ      -0.2559     ZZ     -21.9194

 Total job time:  26.65s(wall), 72.62s(cpu)
        *  Thank you very much for using Q-Chem.  Have a nice day.  *
