 Q-Chem 5.3 (devel), Q-Chem, Inc., Pleasanton, CA (2020)
 Q-Chem 5.3.0 for Intel X86 EM64T Linux

User input:
--------------------------------------------------------------
$rem
   JOBTYPE  sp
   EXCHANGE   omegaB97X-D
   BASIS   6-311+G(2df,2pd)
   max_scf_cycles   250
   geom_opt_max_cycles   1500
   basis2 6-31G*
   scf_algorithm rca_diis
   SYM_IGNORE  TRUE
   print_input   true
   geom_opt_dmax   80
   pop_mulliken false
   XC_GRID 000075000302
$end

$molecule
0 1
C       1.2619501241     -0.2053536192     0.1037358831
C       -0.0000019144     0.5996164528     -0.1830014480
H       1.4970550334     0.0254086392     1.1480804895
H       2.1463527198     0.0142432088     -0.4919145729
H       1.0724238726     -1.2775700534     0.0441218103
C       -1.2619501705     -0.2053614458     0.1037325565
H       -0.0000009588     0.6594122801     -1.2732608018
H       -0.0000058361     1.6275641193     0.1892840082
H       -1.4970288146     0.0253443929     1.1480949549
H       -1.0724282854     -1.2775754727     0.0440563846
H       -2.1463658307     0.0142721640     -0.4918842453
$end
--------------------------------------------------------------

             Standard Nuclear Orientation (Angstroms)
    I     Atom           X                Y                Z
 ----------------------------------------------------------------
    1      C       1.2619501241    -0.2053536192     0.1037358831
    2      C      -0.0000019144     0.5996164528    -0.1830014480
    3      H       1.4970550334     0.0254086392     1.1480804895
    4      H       2.1463527198     0.0142432088    -0.4919145729
    5      H       1.0724238726    -1.2775700534     0.0441218103
    6      C      -1.2619501705    -0.2053614458     0.1037325565
    7      H      -0.0000009588     0.6594122801    -1.2732608018
    8      H      -0.0000058361     1.6275641193     0.1892840082
    9      H      -1.4970288146     0.0253443929     1.1480949549
   10      H      -1.0724282854    -1.2775754727     0.0440563846
   11      H      -2.1463658307     0.0142721640    -0.4918842453
 ----------------------------------------------------------------

    7    -119.0874444250      4.73E-06 Convergence criterion met
    6    -119.1309680116      4.18E-06 Convergence criterion met
 Total energy in the final basis set = -119.13096801

                    Orbital Energies (a.u.)
 --------------------------------------------------------------

 Alpha MOs
 -- Occupied --
-10.2732 -10.2653 -10.2653  -0.8836  -0.7764  -0.6784  -0.5475  -0.5295
 -0.4758  -0.4670  -0.4324  -0.4190  -0.3835

                    Cartesian Multipole Moments
 -----------------------------------------------------------------
    Charge (ESU x 10^10)
                -0.0000
    Dipole Moment (Debye)
         X      -0.0000      Y       0.0447      Z      -0.0654
       Tot       0.0792
    Quadrupole Moments (Debye-Ang)
        XX     -22.1383     XY      -0.0000     YY     -21.4637
        XZ      -0.0000     YZ       0.5254     ZZ     -21.8697

 Total job time:  26.79s(wall), 73.25s(cpu)
        *  Thank you very much for using Q-Chem.  Have a nice day.  *
