 Q-Chem 5.2 (devel), Q-Chem, Inc., Pleasanton, CA (2019)
 Q-Chem 5.2.2 for Intel X86 EM64T Linux

User input:
--------------------------------------------------------------
$rem
   JOBTYPE  sp
   EXCHANGE   omegaB97X-D
   BASIS   6-311+G(2df,2pd)
   max_scf_cycles   250
   geom_opt_max_cycles   1500
   basis2 6-31G*
   scf_algorithm rca_diis
   SYM_IGNORE  TRUE
   print_input   true
   geom_opt_dmax   80
   pop_mulliken false
   XC_GRID 000075000302
$end

$molecule
0 1
C       1.2895574388     0.0000000995     0.2264704364
C       0.0136413093     0.0000000150     -0.5874575607
H       1.2754716952     -0.8732939261     0.8824028927
H       1.2754719184     0.8732939755     0.8824030898
H       2.2278214572     -0.0000000257     -0.3274134087
C       -1.2442437090     -0.0000000567     0.2917193095
H       -0.0374314958     -0.8734184283     -1.2418951086
H       -0.0374318412     0.8734183916     -1.2418951888
H       -1.3330308885     -0.8857942342     0.9231844621
H       -2.0967953870     0.0000006620     -0.3896583613
H       -1.3330305580     0.8857941935     0.9231844565
--------------------------------------------------------------

             Standard Nuclear Orientation (Angstroms)
    I     Atom           X                Y                Z
 ----------------------------------------------------------------
    1      C       1.2895574388     0.0000000995     0.2264704364
    2      C       0.0136413093     0.0000000150    -0.5874575607
    3      H       1.2754716952    -0.8732939261     0.8824028927
    4      H       1.2754719184     0.8732939755     0.8824030898
    5      H       2.2278214572    -0.0000000257    -0.3274134087
    6      C      -1.2442437090    -0.0000000567     0.2917193095
    7      H      -0.0374314958    -0.8734184283    -1.2418951086
    8      H      -0.0374318412     0.8734183916    -1.2418951888
    9      H      -1.3330308885    -0.8857942342     0.9231844621
   10      H      -2.0967953870     0.0000006620    -0.3896583613
   11      H      -1.3330305580     0.8857941935     0.9231844565
 ----------------------------------------------------------------

    7    -119.1009290437      4.52E-06 Convergence criterion met
    6    -119.1439185990      3.90E-06 Convergence criterion met
 Total energy in the final basis set = -119.14391860

                    Orbital Energies (a.u.)
 --------------------------------------------------------------

 Alpha MOs
 -- Occupied --
-10.2745 -10.2661 -10.2642  -0.8817  -0.7774  -0.6778  -0.5458  -0.5250
 -0.4829  -0.4635  -0.4186  -0.4166  -0.4072

                    Cartesian Multipole Moments
 -----------------------------------------------------------------
    Charge (ESU x 10^10)
                 0.0000
    Dipole Moment (Debye)
         X      -0.0406      Y       0.0000      Z      -0.0853
       Tot       0.0944
    Quadrupole Moments (Debye-Ang)
        XX     -22.1565     XY      -0.0000     YY     -21.3757
        XZ      -0.0329     YZ      -0.0000     ZZ     -21.8516

 Total job time:  34.45s(wall), 95.97s(cpu)
        *  Thank you very much for using Q-Chem.  Have a nice day.  *
