 Q-Chem 5.3 (devel), Q-Chem, Inc., Pleasanton, CA (2020)
 Q-Chem 5.3.0 for Intel X86 EM64T Linux

User input:
--------------------------------------------------------------
$rem
   JOBTYPE  sp
   EXCHANGE   omegaB97X-D
   BASIS   6-311+G(2df,2pd)
   max_scf_cycles   250
   geom_opt_max_cycles   1500
   basis2 6-31G*
   scf_algorithm rca_diis
   SYM_IGNORE  TRUE
   print_input   true
   geom_opt_dmax   80
   pop_mulliken false
   XC_GRID 000075000302
$end

$molecule
0 1
C       0.8373858747     -0.9509478064     0.2540415231
C       0.0000085166     0.0000189620     -0.5928217325
H       0.2619724598     -1.1953072430     1.1414797148
H       1.7963280629     -0.5308999375     0.5857975851
H       1.0352377612     -1.8863300028     -0.2703979531
C       -0.8373959883     0.9509295884     0.2540782252
H       -0.5108246344     -0.7131688823     -1.2441029118
H       0.5108624944     0.7132523078     -1.2440385737
H       -1.7962692045     0.5308027782     0.5859286567
H       -1.0353706716     1.8862760792     -0.2703788370
H       -0.2619347315     1.1953748223     1.1414593222
$end
--------------------------------------------------------------

             Standard Nuclear Orientation (Angstroms)
    I     Atom           X                Y                Z
 ----------------------------------------------------------------
    1      C       0.8373858747    -0.9509478064     0.2540415231
    2      C       0.0000085166     0.0000189620    -0.5928217325
    3      H       0.2619724598    -1.1953072430     1.1414797148
    4      H       1.7963280629    -0.5308999375     0.5857975851
    5      H       1.0352377612    -1.8863300028    -0.2703979531
    6      C      -0.8373959883     0.9509295884     0.2540782252
    7      H      -0.5108246344    -0.7131688823    -1.2441029118
    8      H       0.5108624944     0.7132523078    -1.2440385737
    9      H      -1.7962692045     0.5308027782     0.5859286567
   10      H      -1.0353706716     1.8862760792    -0.2703788370
   11      H      -0.2619347315     1.1953748223     1.1414593222
 ----------------------------------------------------------------

    7    -119.0896171166      4.67E-06 Convergence criterion met
    6    -119.1330855765      4.10E-06 Convergence criterion met
 Total energy in the final basis set = -119.13308558

                    Orbital Energies (a.u.)
 --------------------------------------------------------------

 Alpha MOs
 -- Occupied --
-10.2728 -10.2655 -10.2655  -0.8829  -0.7782  -0.6779  -0.5467  -0.5287
 -0.4803  -0.4676  -0.4238  -0.4141  -0.3949

                    Cartesian Multipole Moments
 -----------------------------------------------------------------
    Charge (ESU x 10^10)
                -0.0000
    Dipole Moment (Debye)
         X       0.0000      Y       0.0000      Z      -0.0459
       Tot       0.0459
    Quadrupole Moments (Debye-Ang)
        XX     -22.1270     XY       0.4237     YY     -21.3774
        XZ      -0.0000     YZ       0.0000     ZZ     -21.9624

 Total job time:  28.99s(wall), 77.44s(cpu)
        *  Thank you very much for using Q-Chem.  Have a nice day.  *
