 Q-Chem 5.2 (devel), Q-Chem, Inc., Pleasanton, CA (2019)
 Q-Chem 5.2.2 for Intel X86 EM64T Linux

User input:
--------------------------------------------------------------
$rem
   JOBTYPE  sp
   EXCHANGE   omegaB97X-D
   BASIS   6-311+G(2df,2pd)
   max_scf_cycles   250
   geom_opt_max_cycles   1500
   basis2 6-31G*
   scf_algorithm rca_diis
   SYM_IGNORE  TRUE
   print_input   true
   geom_opt_dmax   80
   pop_mulliken false
   XC_GRID 000075000302
$end

$molecule
0 1
C       1.2599820161     -0.2273755383     0.0544527267
C       -0.0000024678     0.6238767058     -0.0481739284
H       1.7448609760     0.1558922380     0.9591269444
H       1.9859882626     -0.1878823985     -0.7550783716
H       1.0174480951     -1.2743254856     0.2394488686
C       -1.2599827497     -0.2273831684     0.0544476007
H       -0.0000014330     0.8758385881     -1.1104801806
H       -0.0000067116     1.5677200263     0.5038280790
H       -1.7448357275     0.1558240575     0.9591605988
H       -1.0174368137     -1.2743434795     0.2393711912
H       -1.9860135070     -0.1878408793     -0.7550585098
--------------------------------------------------------------

             Standard Nuclear Orientation (Angstroms)
    I     Atom           X                Y                Z
 ----------------------------------------------------------------
    1      C       1.2599820161    -0.2273755383     0.0544527267
    2      C      -0.0000024678     0.6238767058    -0.0481739284
    3      H       1.7448609760     0.1558922380     0.9591269444
    4      H       1.9859882626    -0.1878823985    -0.7550783716
    5      H       1.0174480951    -1.2743254856     0.2394488686
    6      C      -1.2599827497    -0.2273831684     0.0544476007
    7      H      -0.0000014330     0.8758385881    -1.1104801806
    8      H      -0.0000067116     1.5677200263     0.5038280790
    9      H      -1.7448357275     0.1558240575     0.9591605988
   10      H      -1.0174368137    -1.2743434795     0.2393711912
   11      H      -1.9860135070    -0.1878408793    -0.7550585098
 ----------------------------------------------------------------

    7    -119.0766506321      4.62E-06 Convergence criterion met
    6    -119.1205873808      4.14E-06 Convergence criterion met
 Total energy in the final basis set = -119.12058738

                    Orbital Energies (a.u.)
 --------------------------------------------------------------

 Alpha MOs
 -- Occupied --
-10.2719 -10.2637 -10.2637  -0.8837  -0.7762  -0.6781  -0.5462  -0.5298
 -0.4826  -0.4649  -0.4347  -0.4075  -0.3804

                    Cartesian Multipole Moments
 -----------------------------------------------------------------
    Charge (ESU x 10^10)
                -0.0000
    Dipole Moment (Debye)
         X       0.0000      Y       0.0931      Z      -0.0588
       Tot       0.1101
    Quadrupole Moments (Debye-Ang)
        XX     -22.4940     XY      -0.0000     YY     -21.5535
        XZ      -0.0000     YZ       0.5502     ZZ     -21.5137

 Total job time:  41.15s(wall), 113.21s(cpu)
        *  Thank you very much for using Q-Chem.  Have a nice day.  *
