 Q-Chem 5.3 (devel), Q-Chem, Inc., Pleasanton, CA (2020)
 Q-Chem 5.3.0 for Intel X86 EM64T Linux

User input:
--------------------------------------------------------------
$rem
   JOBTYPE  sp
   EXCHANGE   omegaB97X-D
   BASIS   6-311+G(2df,2pd)
   max_scf_cycles   250
   geom_opt_max_cycles   1500
   basis2 6-31G*
   scf_algorithm rca_diis
   SYM_IGNORE  TRUE
   print_input   true
   geom_opt_dmax   80
   pop_mulliken false
   XC_GRID 000075000302
$end

$molecule
0 1
C       1.2660639967     0.0537422717     0.2597851977
C       0.0000000406     -0.0000011020     -0.5869229570
H       1.2044499590     -0.6381007394     1.1026630105
H       1.4165585046     1.0552551209     0.6669562275
H       2.1505527081     -0.2061183204     -0.3226876321
C       -1.2660640328     -0.0537411499     0.2597852075
H       0.0268428370     -0.8734722491     -1.2427311751
H       -0.0268426340     0.8734672309     -1.2427348353
H       -1.4165632116     -1.0552548945     0.6669524756
H       -2.1505517724     0.2061259888     -0.3226861661
H       -1.2044464558     0.6380985091     1.1026656656
$end
--------------------------------------------------------------

             Standard Nuclear Orientation (Angstroms)
    I     Atom           X                Y                Z
 ----------------------------------------------------------------
    1      C       1.2660639967     0.0537422717     0.2597851977
    2      C       0.0000000406    -0.0000011020    -0.5869229570
    3      H       1.2044499590    -0.6381007394     1.1026630105
    4      H       1.4165585046     1.0552551209     0.6669562275
    5      H       2.1505527081    -0.2061183204    -0.3226876321
    6      C      -1.2660640328    -0.0537411499     0.2597852075
    7      H       0.0268428370    -0.8734722491    -1.2427311751
    8      H      -0.0268426340     0.8734672309    -1.2427348353
    9      H      -1.4165632116    -1.0552548945     0.6669524756
   10      H      -2.1505517724     0.2061259888    -0.3226861661
   11      H      -1.2044464558     0.6380985091     1.1026656656
 ----------------------------------------------------------------

    7    -119.1012942936      4.49E-06 Convergence criterion met
    6    -119.1442661100      3.90E-06 Convergence criterion met
 Total energy in the final basis set = -119.14426611

                    Orbital Energies (a.u.)
 --------------------------------------------------------------

 Alpha MOs
 -- Occupied --
-10.2735 -10.2649 -10.2649  -0.8811  -0.7770  -0.6776  -0.5453  -0.5246
 -0.4817  -0.4655  -0.4180  -0.4179  -0.4053

                    Cartesian Multipole Moments
 -----------------------------------------------------------------
    Charge (ESU x 10^10)
                -0.0000
    Dipole Moment (Debye)
         X       0.0000      Y      -0.0000      Z      -0.0848
       Tot       0.0848
    Quadrupole Moments (Debye-Ang)
        XX     -22.1907     XY      -0.0407     YY     -21.3305
        XZ       0.0000     YZ      -0.0000     ZZ     -21.8557

 Total job time:  26.97s(wall), 73.37s(cpu)
        *  Thank you very much for using Q-Chem.  Have a nice day.  *
