 Q-Chem 5.3 (devel), Q-Chem, Inc., Pleasanton, CA (2020)
 Q-Chem 5.3.0 for Intel X86 EM64T Linux

User input:
--------------------------------------------------------------
$rem
   JOBTYPE  sp
   EXCHANGE   omegaB97X-D
   BASIS   6-311+G(2df,2pd)
   max_scf_cycles   250
   geom_opt_max_cycles   1500
   basis2 6-31G*
   scf_algorithm rca_diis
   SYM_IGNORE  TRUE
   print_input   true
   geom_opt_dmax   80
   pop_mulliken false
   XC_GRID 000075000302
$end

$molecule
0 1
C       1.1229793476     -0.5870242627     0.2628772307
C       0.0000027720     0.0000131280     -0.5838982924
H       2.0122129510     0.0304917436     0.1519312938
H       1.3897120679     -1.6066413121     -0.0358526489
H       0.8626910526     -0.6003810062     1.3217416040
C       -1.1229820533     0.5870169108     0.2628898730
H       -0.3025834862     -0.8209537708     -1.2382761725
H       0.3025949090     0.8210072207     -1.2382403628
H       -1.3897840229     1.6066075260     -0.0358652320
H       -0.8626611850     0.6004181081     1.3217457454
H       -2.0121824133     -0.0305536194     0.1519919808
$end
--------------------------------------------------------------

             Standard Nuclear Orientation (Angstroms)
    I     Atom           X                Y                Z
 ----------------------------------------------------------------
    1      C       1.1229793476    -0.5870242627     0.2628772307
    2      C       0.0000027720     0.0000131280    -0.5838982924
    3      H       2.0122129510     0.0304917436     0.1519312938
    4      H       1.3897120679    -1.6066413121    -0.0358526489
    5      H       0.8626910526    -0.6003810062     1.3217416040
    6      C      -1.1229820533     0.5870169108     0.2628898730
    7      H      -0.3025834862    -0.8209537708    -1.2382761725
    8      H       0.3025949090     0.8210072207    -1.2382403628
    9      H      -1.3897840229     1.6066075260    -0.0358652320
   10      H      -0.8626611850     0.6004181081     1.3217457454
   11      H      -2.0121824133    -0.0305536194     0.1519919808
 ----------------------------------------------------------------

    7    -119.0882348682      4.28E-06 Convergence criterion met
    6    -119.1317478333      3.99E-06 Convergence criterion met
 Total energy in the final basis set = -119.13174783

                    Orbital Energies (a.u.)
 --------------------------------------------------------------

 Alpha MOs
 -- Occupied --
-10.2714 -10.2635 -10.2635  -0.8813  -0.7767  -0.6777  -0.5447  -0.5280
 -0.4776  -0.4701  -0.4216  -0.4173  -0.3905

                    Cartesian Multipole Moments
 -----------------------------------------------------------------
    Charge (ESU x 10^10)
                 0.0000
    Dipole Moment (Debye)
         X       0.0000      Y      -0.0000      Z      -0.0835
       Tot       0.0835
    Quadrupole Moments (Debye-Ang)
        XX     -22.4050     XY       0.2765     YY     -21.2406
        XZ       0.0000     YZ       0.0000     ZZ     -21.8229

 Total job time:  27.76s(wall), 74.75s(cpu)
        *  Thank you very much for using Q-Chem.  Have a nice day.  *
