 Q-Chem 5.3 (devel), Q-Chem, Inc., Pleasanton, CA (2020)
 Q-Chem 5.3.0 for Intel X86 EM64T Linux

User input:
--------------------------------------------------------------
$rem
   JOBTYPE  sp
   EXCHANGE   omegaB97X-D
   BASIS   6-311+G(2df,2pd)
   max_scf_cycles   250
   geom_opt_max_cycles   1500
   basis2 6-31G*
   scf_algorithm rca_diis
   SYM_IGNORE  TRUE
   print_input   true
   geom_opt_dmax   80
   pop_mulliken false
   XC_GRID 000075000302
$end

$molecule
0 1
C       1.0510747263     -0.7077218847     0.2564046447
C       0.0000038885     0.0000150713     -0.5903987336
H       1.6486389753     0.0428947502     0.7683548509
H       1.7349403944     -1.3276737039     -0.3350133999
H       0.5938113083     -1.3378249004     1.0199506258
C       -1.0510800927     0.7077120207     0.2564221153
H       -0.3688954304     -0.7939735349     -1.2440428402
H       0.3689129209     0.7940361204     -1.2439992089
H       -1.7350159148     1.3275937874     -0.3349862811
H       -0.5938223253     1.3378691174     1.0199269643
H       -1.6485685111     -0.0429261775     0.7684262817
$end
--------------------------------------------------------------

             Standard Nuclear Orientation (Angstroms)
    I     Atom           X                Y                Z
 ----------------------------------------------------------------
    1      C       1.0510747263    -0.7077218847     0.2564046447
    2      C       0.0000038885     0.0000150713    -0.5903987336
    3      H       1.6486389753     0.0428947502     0.7683548509
    4      H       1.7349403944    -1.3276737039    -0.3350133999
    5      H       0.5938113083    -1.3378249004     1.0199506258
    6      C      -1.0510800927     0.7077120207     0.2564221153
    7      H      -0.3688954304    -0.7939735349    -1.2440428402
    8      H       0.3689129209     0.7940361204    -1.2439992089
    9      H      -1.7350159148     1.3275937874    -0.3349862811
   10      H      -0.5938223253     1.3378691174     1.0199269643
   11      H      -1.6485685111    -0.0429261775     0.7684262817
 ----------------------------------------------------------------

    7    -119.0973802458      4.62E-06 Convergence criterion met
    6    -119.1405018783      3.99E-06 Convergence criterion met
 Total energy in the final basis set = -119.14050188

                    Orbital Energies (a.u.)
 --------------------------------------------------------------

 Alpha MOs
 -- Occupied --
-10.2737 -10.2657 -10.2657  -0.8820  -0.7776  -0.6779  -0.5469  -0.5253
 -0.4832  -0.4646  -0.4264  -0.4155  -0.3975

                    Cartesian Multipole Moments
 -----------------------------------------------------------------
    Charge (ESU x 10^10)
                 0.0000
    Dipole Moment (Debye)
         X       0.0000      Y       0.0000      Z      -0.0576
       Tot       0.0576
    Quadrupole Moments (Debye-Ang)
        XX     -22.2246     XY       0.1405     YY     -21.2647
        XZ       0.0000     YZ       0.0000     ZZ     -21.9157

 Total job time:  26.49s(wall), 72.52s(cpu)
        *  Thank you very much for using Q-Chem.  Have a nice day.  *
