 Q-Chem 5.3 (devel), Q-Chem, Inc., Pleasanton, CA (2020)
 Q-Chem 5.3.0 for Intel X86 EM64T Linux

User input:
--------------------------------------------------------------
$rem
   JOBTYPE  sp
   EXCHANGE   omegaB97X-D
   BASIS   6-311+G(2df,2pd)
   max_scf_cycles   250
   geom_opt_max_cycles   1500
   basis2 6-31G*
   scf_algorithm rca_diis
   SYM_IGNORE  TRUE
   print_input   true
   geom_opt_dmax   80
   pop_mulliken false
   XC_GRID 000075000302
$end

$molecule
0 1
C       1.2467301664     0.0927723784     0.2595710073
C       -0.0000000067     0.1645237683     -0.6140631200
H       1.1044507823     -0.8943856907     0.7095568472
H       1.4289967194     0.8080475049     1.0610134043
H       2.1452736257     -0.0013725030     -0.3510670066
C       -1.2467302104     0.0927732277     0.2595708819
H       -0.0000005999     -0.9050453641     -0.8600823544
H       0.0000004634     0.7303970693     -1.5429578437
H       -1.1044498669     -0.8943847431     0.7095568123
H       -2.1452736465     -0.0013729577     -0.3510669934
H       -1.4289974875     0.8080479760     1.0610133840
$end
--------------------------------------------------------------

             Standard Nuclear Orientation (Angstroms)
    I     Atom           X                Y                Z
 ----------------------------------------------------------------
    1      C       1.2467301664     0.0927723784     0.2595710073
    2      C      -0.0000000067     0.1645237683    -0.6140631200
    3      H       1.1044507823    -0.8943856907     0.7095568472
    4      H       1.4289967194     0.8080475049     1.0610134043
    5      H       2.1452736257    -0.0013725030    -0.3510670066
    6      C      -1.2467302104     0.0927732277     0.2595708819
    7      H      -0.0000005999    -0.9050453641    -0.8600823544
    8      H       0.0000004634     0.7303970693    -1.5429578437
    9      H      -1.1044498669    -0.8943847431     0.7095568123
   10      H      -2.1452736465    -0.0013729577    -0.3510669934
   11      H      -1.4289974875     0.8080479760     1.0610133840
 ----------------------------------------------------------------

    7    -119.0712017888      5.08E-06 Convergence criterion met
    6    -119.1153772884      3.75E-06 Convergence criterion met
 Total energy in the final basis set = -119.11537729

                    Orbital Energies (a.u.)
 --------------------------------------------------------------

 Alpha MOs
 -- Occupied --
-10.2762 -10.2669 -10.2669  -0.8919  -0.7775  -0.6757  -0.5595  -0.5208
 -0.4912  -0.4539  -0.4275  -0.4133  -0.3906

                    Cartesian Multipole Moments
 -----------------------------------------------------------------
    Charge (ESU x 10^10)
                -0.0000
    Dipole Moment (Debye)
         X       0.0000      Y      -0.2263      Z      -0.1157
       Tot       0.2542
    Quadrupole Moments (Debye-Ang)
        XX     -22.2643     XY       0.0000     YY     -21.6225
        XZ      -0.0000     YZ       0.0694     ZZ     -21.7296

 Total job time:  25.98s(wall), 71.39s(cpu)
        *  Thank you very much for using Q-Chem.  Have a nice day.  *
