 Q-Chem 5.3 (devel), Q-Chem, Inc., Pleasanton, CA (2020)
 Q-Chem 5.3.0 for Intel X86 EM64T Linux

User input:
--------------------------------------------------------------
$rem
   JOBTYPE  sp
   EXCHANGE   omegaB97X-D
   BASIS   6-311+G(2df,2pd)
   max_scf_cycles   250
   geom_opt_max_cycles   1500
   basis2 6-31G*
   scf_algorithm rca_diis
   SYM_IGNORE  TRUE
   print_input   true
   geom_opt_dmax   80
   pop_mulliken false
   XC_GRID 000075000302
$end

$molecule
0 1
C       1.2613265589     -0.2135262892     0.0874224878
C       -0.0000021086     0.6113305152     -0.1392472012
H       1.5823775650     0.0701442537     1.0954161478
H       2.1021544977     -0.0564376727     -0.5857130677
H       1.0400584068     -1.2811159871     0.1077877927
C       -1.2613268382     -0.2135341133     0.0874186057
H       -0.0000011430     0.7356525718     -1.2240033477
H       -0.0000061388     1.6149390215     0.2944947137
H       -1.5823506896     0.0700782527     1.0954366428
H       -1.0400582744     -1.2811252813     0.1077176142
H       -2.1021718962     -0.0564046054     -0.5856853692
$end
--------------------------------------------------------------

             Standard Nuclear Orientation (Angstroms)
    I     Atom           X                Y                Z
 ----------------------------------------------------------------
    1      C       1.2613265589    -0.2135262892     0.0874224878
    2      C      -0.0000021086     0.6113305152    -0.1392472012
    3      H       1.5823775650     0.0701442537     1.0954161478
    4      H       2.1021544977    -0.0564376727    -0.5857130677
    5      H       1.0400584068    -1.2811159871     0.1077877927
    6      C      -1.2613268382    -0.2135341133     0.0874186057
    7      H      -0.0000011430     0.7356525718    -1.2240033477
    8      H      -0.0000061388     1.6149390215     0.2944947137
    9      H      -1.5823506896     0.0700782527     1.0954366428
   10      H      -1.0400582744    -1.2811252813     0.1077176142
   11      H      -2.1021718962    -0.0564046054    -0.5856853692
 ----------------------------------------------------------------

    7    -119.0833206513      4.68E-06 Convergence criterion met
    6    -119.1270021447      4.18E-06 Convergence criterion met
 Total energy in the final basis set = -119.12700214

                    Orbital Energies (a.u.)
 --------------------------------------------------------------

 Alpha MOs
 -- Occupied --
-10.2727 -10.2647 -10.2647  -0.8836  -0.7762  -0.6784  -0.5470  -0.5298
 -0.4771  -0.4672  -0.4338  -0.4150  -0.3816

                    Cartesian Multipole Moments
 -----------------------------------------------------------------
    Charge (ESU x 10^10)
                 0.0000
    Dipole Moment (Debye)
         X       0.0000      Y       0.0562      Z      -0.0612
       Tot       0.0831
    Quadrupole Moments (Debye-Ang)
        XX     -22.2656     XY      -0.0000     YY     -21.4827
        XZ      -0.0000     YZ       0.5442     ZZ     -21.7577

 Total job time:  26.66s(wall), 72.65s(cpu)
        *  Thank you very much for using Q-Chem.  Have a nice day.  *
