 Q-Chem 5.3 (devel), Q-Chem, Inc., Pleasanton, CA (2020)
 Q-Chem 5.3.0 for Intel X86 EM64T Linux

User input:
--------------------------------------------------------------
$rem
   JOBTYPE  sp
   EXCHANGE   omegaB97X-D
   BASIS   6-311+G(2df,2pd)
   max_scf_cycles   250
   geom_opt_max_cycles   1500
   basis2 6-31G*
   scf_algorithm rca_diis
   SYM_IGNORE  TRUE
   print_input   true
   geom_opt_dmax   80
   pop_mulliken false
   XC_GRID 000075000302
$end

$molecule
0 1
C       0.7755990599     -1.0019700876     0.2589901295
C       0.0000104333     0.0000202030     -0.5878825785
H       0.0544571061     -1.5467202384     0.8594072745
H       1.5037823794     -0.5482760551     0.9453249874
H       1.2960579174     -1.7326700325     -0.3609470640
C       -0.7756089376     1.0019504412     0.2590335645
H       -0.5433593644     -0.6893829133     -1.2384415903
H       0.5434039417     0.6894719474     -1.2383722210
H       -1.5036808637     0.5482043145     0.9454495465
H       -1.2961911218     1.7325795131     -0.3608838339
H       -0.0544706109     1.5467935736     0.8593668042
$end
--------------------------------------------------------------

             Standard Nuclear Orientation (Angstroms)
    I     Atom           X                Y                Z
 ----------------------------------------------------------------
    1      C       0.7755990599    -1.0019700876     0.2589901295
    2      C       0.0000104333     0.0000202030    -0.5878825785
    3      H       0.0544571061    -1.5467202384     0.8594072745
    4      H       1.5037823794    -0.5482760551     0.9453249874
    5      H       1.2960579174    -1.7326700325    -0.3609470640
    6      C      -0.7756089376     1.0019504412     0.2590335645
    7      H      -0.5433593644    -0.6893829133    -1.2384415903
    8      H       0.5434039417     0.6894719474    -1.2383722210
    9      H      -1.5036808637     0.5482043145     0.9454495465
   10      H      -1.2961911218     1.7325795131    -0.3608838339
   11      H      -0.0544706109     1.5467935736     0.8593668042
 ----------------------------------------------------------------

    7    -119.0934871770      4.75E-06 Convergence criterion met
    6    -119.1367017776      3.98E-06 Convergence criterion met
 Total energy in the final basis set = -119.13670178

                    Orbital Energies (a.u.)
 --------------------------------------------------------------

 Alpha MOs
 -- Occupied --
-10.2744 -10.2661 -10.2661  -0.8829  -0.7792  -0.6774  -0.5483  -0.5254
 -0.4844  -0.4641  -0.4249  -0.4161  -0.3963

                    Cartesian Multipole Moments
 -----------------------------------------------------------------
    Charge (ESU x 10^10)
                -0.0000
    Dipole Moment (Debye)
         X       0.0000      Y       0.0000      Z      -0.0703
       Tot       0.0703
    Quadrupole Moments (Debye-Ang)
        XX     -22.1149     XY       0.3888     YY     -21.4150
        XZ      -0.0000     YZ       0.0000     ZZ     -21.8946

 Total job time:  26.90s(wall), 73.24s(cpu)
        *  Thank you very much for using Q-Chem.  Have a nice day.  *
