 Q-Chem 5.3 (devel), Q-Chem, Inc., Pleasanton, CA (2020)
 Q-Chem 5.3.0 for Intel X86 EM64T Linux

User input:
--------------------------------------------------------------
$rem
   JOBTYPE  sp
   EXCHANGE   omegaB97X-D
   BASIS   6-311+G(2df,2pd)
   max_scf_cycles   250
   geom_opt_max_cycles   1500
   basis2 6-31G*
   scf_algorithm rca_diis
   SYM_IGNORE  TRUE
   print_input   true
   geom_opt_dmax   80
   pop_mulliken false
   XC_GRID 000075000302
$end

$molecule
0 1
C       1.2533846790     -0.2493056241     -0.0633801945
C       -0.0000029336     0.5245689516     0.3275852218
H       2.0171203003     0.5128457233     0.1355131502
H       1.4047558729     -0.6248124835     -1.0717267019
H       1.4407864340     -1.0683772547     0.6316911643
C       -1.2533850538     -0.2493100214     -0.0633915130
H       -0.0000009621     1.2298796572     -0.5053599020
H       -0.0000084523     1.1049002254     1.2546612951
H       -2.0171426488     0.5127939667     0.1355938830
H       -1.4407278790     -1.0684448295     0.6316219776
H       -1.4047794173     -0.6247376450     -1.0717633616
$end
--------------------------------------------------------------

             Standard Nuclear Orientation (Angstroms)
    I     Atom           X                Y                Z
 ----------------------------------------------------------------
    1      C       1.2533846790    -0.2493056241    -0.0633801945
    2      C      -0.0000029336     0.5245689516     0.3275852218
    3      H       2.0171203003     0.5128457233     0.1355131502
    4      H       1.4047558729    -0.6248124835    -1.0717267019
    5      H       1.4407864340    -1.0683772547     0.6316911643
    6      C      -1.2533850538    -0.2493100214    -0.0633915130
    7      H      -0.0000009621     1.2298796572    -0.5053599020
    8      H      -0.0000084523     1.1049002254     1.2546612951
    9      H      -2.0171426488     0.5127939667     0.1355938830
   10      H      -1.4407278790    -1.0684448295     0.6316219776
   11      H      -1.4047794173    -0.6247376450    -1.0717633616
 ----------------------------------------------------------------

    7    -119.0740329008      6.37E-06 Convergence criterion met
    5    -119.1177896871      9.10E-06 Convergence criterion met
 Total energy in the final basis set = -119.11778969

                    Orbital Energies (a.u.)
 --------------------------------------------------------------

 Alpha MOs
 -- Occupied --
-10.2764 -10.2631 -10.2631  -0.8850  -0.7785  -0.6765  -0.5473  -0.5144
 -0.5009  -0.4648  -0.4468  -0.3861  -0.3860

                    Cartesian Multipole Moments
 -----------------------------------------------------------------
    Charge (ESU x 10^10)
                -0.0000
    Dipole Moment (Debye)
         X       0.0000      Y       0.2159      Z      -0.0465
       Tot       0.2209
    Quadrupole Moments (Debye-Ang)
        XX     -23.0991     XY      -0.0000     YY     -21.6672
        XZ      -0.0000     YZ       0.6010     ZZ     -20.8917

 Total job time:  25.94s(wall), 69.06s(cpu)
        *  Thank you very much for using Q-Chem.  Have a nice day.  *
