 Q-Chem 5.3 (devel), Q-Chem, Inc., Pleasanton, CA (2020)
 Q-Chem 5.3.0 for Intel X86 EM64T Linux

User input:
--------------------------------------------------------------
$rem
   JOBTYPE  sp
   EXCHANGE   omegaB97X-D
   BASIS   6-311+G(2df,2pd)
   max_scf_cycles   250
   geom_opt_max_cycles   1500
   basis2 6-31G*
   scf_algorithm rca_diis
   SYM_IGNORE  TRUE
   print_input   true
   geom_opt_dmax   80
   pop_mulliken false
   XC_GRID 000075000302
$end

$molecule
0 1
C       0.9507549842     0.8376522460     0.2509404543
C       0.0000066739     -0.0000186110     -0.5958829885
H       1.9884747316     0.8204055803     -0.1051066299
H       0.9443161785     0.4393583291     1.2617815181
H       0.6262408392     1.8770842627     0.3092017164
C       -0.9507620355     -0.8376380067     0.2509680276
H       0.4428186530     -0.7562616470     -1.2483954380
H       -0.4427874450     0.7561840892     -1.2484527573
H       -0.9442252730     -0.4393751363     1.2618220437
H       -0.6263336991     -1.8770991995     0.3091847633
H       -1.9885036683     -0.8202912408     -0.1050156907
$end
--------------------------------------------------------------

             Standard Nuclear Orientation (Angstroms)
    I     Atom           X                Y                Z
 ----------------------------------------------------------------
    1      C       0.9507549842     0.8376522460     0.2509404543
    2      C       0.0000066739    -0.0000186110    -0.5958829885
    3      H       1.9884747316     0.8204055803    -0.1051066299
    4      H       0.9443161785     0.4393583291     1.2617815181
    5      H       0.6262408392     1.8770842627     0.3092017164
    6      C      -0.9507620355    -0.8376380067     0.2509680276
    7      H       0.4428186530    -0.7562616470    -1.2483954380
    8      H      -0.4427874450     0.7561840892    -1.2484527573
    9      H      -0.9442252730    -0.4393751363     1.2618220437
   10      H      -0.6263336991    -1.8770991995     0.3091847633
   11      H      -1.9885036683    -0.8202912408    -0.1050156907
 ----------------------------------------------------------------

    7    -119.0872786127      4.41E-06 Convergence criterion met
    6    -119.1308309848      4.13E-06 Convergence criterion met
 Total energy in the final basis set = -119.13083098

                    Orbital Energies (a.u.)
 --------------------------------------------------------------

 Alpha MOs
 -- Occupied --
-10.2719 -10.2647 -10.2647  -0.8827  -0.7769  -0.6785  -0.5457  -0.5305
 -0.4744  -0.4715  -0.4224  -0.4161  -0.3924

                    Cartesian Multipole Moments
 -----------------------------------------------------------------
    Charge (ESU x 10^10)
                 0.0000
    Dipole Moment (Debye)
         X       0.0000      Y       0.0000      Z      -0.0573
       Tot       0.0573
    Quadrupole Moments (Debye-Ang)
        XX     -22.0994     XY      -0.3956     YY     -21.2720
        XZ       0.0000     YZ      -0.0000     ZZ     -22.0820

 Total job time:  25.99s(wall), 71.49s(cpu)
        *  Thank you very much for using Q-Chem.  Have a nice day.  *
