 Q-Chem 5.3 (devel), Q-Chem, Inc., Pleasanton, CA (2020)
 Q-Chem 5.3.0 for Intel X86 EM64T Linux

User input:
--------------------------------------------------------------
$rem
   JOBTYPE  sp
   EXCHANGE   omegaB97X-D
   BASIS   6-311+G(2df,2pd)
   max_scf_cycles   250
   geom_opt_max_cycles   1500
   basis2 6-31G*
   scf_algorithm rca_diis
   SYM_IGNORE  TRUE
   print_input   true
   geom_opt_dmax   80
   pop_mulliken false
   XC_GRID 000075000302
$end

$molecule
0 1
C       1.2665421455     0.0786115906     0.2388836209
C       -0.0000002680     -0.2726271368     -0.5326235836
H       1.8415410390     -0.7964094803     0.5445337028
H       0.9827222246     0.6195726713     1.1452240315
H       1.9236526826     0.7268040754     -0.3417838601
C       -1.2665418659     0.0786160659     0.2388826601
H       -0.0000018170     -1.3160989635     -0.8573672029
H       0.0000010813     0.3315488433     -1.4426747832
H       -1.8415311221     -0.7964056072     0.5445497802
H       -1.9236604424     0.7267934453     -0.3417924052
H       -0.9827237183     0.6195951620     1.1452130585
$end
--------------------------------------------------------------

             Standard Nuclear Orientation (Angstroms)
    I     Atom           X                Y                Z
 ----------------------------------------------------------------
    1      C       1.2665421455     0.0786115906     0.2388836209
    2      C      -0.0000002680    -0.2726271368    -0.5326235836
    3      H       1.8415410390    -0.7964094803     0.5445337028
    4      H       0.9827222246     0.6195726713     1.1452240315
    5      H       1.9236526826     0.7268040754    -0.3417838601
    6      C      -1.2665418659     0.0786160659     0.2388826601
    7      H      -0.0000018170    -1.3160989635    -0.8573672029
    8      H       0.0000010813     0.3315488433    -1.4426747832
    9      H      -1.8415311221    -0.7964056072     0.5445497802
   10      H      -1.9236604424     0.7267934453    -0.3417924052
   11      H      -0.9827237183     0.6195951620     1.1452130585
 ----------------------------------------------------------------

    7    -119.0904284104      4.14E-06 Convergence criterion met
    6    -119.1339534931      4.05E-06 Convergence criterion met
 Total energy in the final basis set = -119.13395349

                    Orbital Energies (a.u.)
 --------------------------------------------------------------

 Alpha MOs
 -- Occupied --
-10.2716 -10.2634 -10.2634  -0.8819  -0.7756  -0.6785  -0.5442  -0.5314
 -0.4739  -0.4674  -0.4203  -0.4158  -0.3985

                    Cartesian Multipole Moments
 -----------------------------------------------------------------
    Charge (ESU x 10^10)
                -0.0000
    Dipole Moment (Debye)
         X      -0.0000      Y      -0.0131      Z      -0.0901
       Tot       0.0910
    Quadrupole Moments (Debye-Ang)
        XX     -22.3168     XY      -0.0000     YY     -21.2922
        XZ      -0.0000     YZ      -0.2574     ZZ     -21.8465

 Total job time:  26.32s(wall), 71.99s(cpu)
        *  Thank you very much for using Q-Chem.  Have a nice day.  *
