 Q-Chem 5.3 (devel), Q-Chem, Inc., Pleasanton, CA (2020)
 Q-Chem 5.3.0 for Intel X86 EM64T Linux

User input:
--------------------------------------------------------------
$rem
   JOBTYPE  sp
   EXCHANGE   omegaB97X-D
   BASIS   6-311+G(2df,2pd)
   max_scf_cycles   250
   geom_opt_max_cycles   1500
   basis2 6-31G*
   scf_algorithm rca_diis
   SYM_IGNORE  TRUE
   print_input   true
   geom_opt_dmax   80
   pop_mulliken false
   XC_GRID 000075000302
$end

$molecule
0 1
C       1.0812827562     0.6606813172     0.2590846367
C       0.0000042349     -0.0000151921     -0.5876979015
H       1.5991502814     1.4719446892     -0.2650713387
H       1.8259598221     -0.0869160478     0.5234017711
H       0.6749129676     1.0607874210     1.1885475683
C       -1.0812857132     -0.6606713974     0.2591011679
H       0.3428401089     -0.8053840727     -1.2416111773
H       -0.3428212925     0.8053217775     -1.2416547337
H       -1.8259034488     0.0869684093     0.5234692965
H       -0.6749137374     -1.0608320278     1.1885395807
H       -1.5992260398     -1.4718842103     -0.2650638511
$end
--------------------------------------------------------------

             Standard Nuclear Orientation (Angstroms)
    I     Atom           X                Y                Z
 ----------------------------------------------------------------
    1      C       1.0812827562     0.6606813172     0.2590846367
    2      C       0.0000042349    -0.0000151921    -0.5876979015
    3      H       1.5991502814     1.4719446892    -0.2650713387
    4      H       1.8259598221    -0.0869160478     0.5234017711
    5      H       0.6749129676     1.0607874210     1.1885475683
    6      C      -1.0812857132    -0.6606713974     0.2591011679
    7      H       0.3428401089    -0.8053840727    -1.2416111773
    8      H      -0.3428212925     0.8053217775    -1.2416547337
    9      H      -1.8259034488     0.0869684093     0.5234692965
   10      H      -0.6749137374    -1.0608320278     1.1885395807
   11      H      -1.5992260398    -1.4718842103    -0.2650638511
 ----------------------------------------------------------------

    7    -119.0942547182      4.56E-06 Convergence criterion met
    6    -119.1375038987      4.01E-06 Convergence criterion met
 Total energy in the final basis set = -119.13750390

                    Orbital Energies (a.u.)
 --------------------------------------------------------------

 Alpha MOs
 -- Occupied --
-10.2727 -10.2651 -10.2651  -0.8817  -0.7774  -0.6777  -0.5458  -0.5259
 -0.4821  -0.4673  -0.4233  -0.4173  -0.3943

                    Cartesian Multipole Moments
 -----------------------------------------------------------------
    Charge (ESU x 10^10)
                -0.0000
    Dipole Moment (Debye)
         X       0.0000      Y      -0.0000      Z      -0.0576
       Tot       0.0576
    Quadrupole Moments (Debye-Ang)
        XX     -22.2940     XY      -0.1748     YY     -21.2592
        XZ      -0.0000     YZ      -0.0000     ZZ     -21.8749

 Total job time:  27.37s(wall), 73.77s(cpu)
        *  Thank you very much for using Q-Chem.  Have a nice day.  *
