 Q-Chem 5.2 (devel), Q-Chem, Inc., Pleasanton, CA (2019)
 Q-Chem 5.2.2 for Intel X86 EM64T Linux

User input:
--------------------------------------------------------------
$rem
   JOBTYPE  sp
   EXCHANGE   omegaB97X-D
   BASIS   6-311+G(2df,2pd)
   max_scf_cycles   250
   geom_opt_max_cycles   1500
   basis2 6-31G*
   scf_algorithm rca_diis
   SYM_IGNORE  TRUE
   print_input   true
   geom_opt_dmax   80
   pop_mulliken false
   XC_GRID 000075000302
$end

$molecule
0 1
C       1.2668763199     0.0268476662     0.2594059639
C       0.0000000075     0.0000000507     -0.5873669208
H       1.2981107731     -0.8694890271     0.8824020614
H       1.3121087400     0.8914915442     0.9243695065
H       2.1641894433     0.0111983811     -0.3600346241
C       -1.2668762954     -0.0268476026     0.2594059738
H       -0.0854286127     -0.8706301446     -1.2419369482
H       0.0854286346     0.8706301891     -1.2419370168
H       -1.3121086412     -0.8914915224     0.9243694406
H       -2.1641894629     -0.0111979222     -0.3600345504
H       -1.2981109669     0.8694890537     0.8824021328
--------------------------------------------------------------

             Standard Nuclear Orientation (Angstroms)
    I     Atom           X                Y                Z
 ----------------------------------------------------------------
    1      C       1.2668763199     0.0268476662     0.2594059639
    2      C       0.0000000075     0.0000000507    -0.5873669208
    3      H       1.2981107731    -0.8694890271     0.8824020614
    4      H       1.3121087400     0.8914915442     0.9243695065
    5      H       2.1641894433     0.0111983811    -0.3600346241
    6      C      -1.2668762954    -0.0268476026     0.2594059738
    7      H      -0.0854286127    -0.8706301446    -1.2419369482
    8      H       0.0854286346     0.8706301891    -1.2419370168
    9      H      -1.3121086412    -0.8914915224     0.9243694406
   10      H      -2.1641894629    -0.0111979222    -0.3600345504
   11      H      -1.2981109669     0.8694890537     0.8824021328
 ----------------------------------------------------------------

    7    -119.1000333964      4.63E-06 Convergence criterion met
    6    -119.1430580120      3.90E-06 Convergence criterion met
 Total energy in the final basis set = -119.14305801

                    Orbital Energies (a.u.)
 --------------------------------------------------------------

 Alpha MOs
 -- Occupied --
-10.2740 -10.2653 -10.2653  -0.8815  -0.7775  -0.6777  -0.5461  -0.5244
 -0.4843  -0.4642  -0.4226  -0.4168  -0.4011

                    Cartesian Multipole Moments
 -----------------------------------------------------------------
    Charge (ESU x 10^10)
                 0.0000
    Dipole Moment (Debye)
         X      -0.0000      Y       0.0000      Z      -0.0810
       Tot       0.0810
    Quadrupole Moments (Debye-Ang)
        XX     -22.1516     XY       0.2487     YY     -21.3800
        XZ      -0.0000     YZ      -0.0000     ZZ     -21.8569

 Total job time:  34.41s(wall), 96.35s(cpu)
        *  Thank you very much for using Q-Chem.  Have a nice day.  *
