 Q-Chem 5.3 (devel), Q-Chem, Inc., Pleasanton, CA (2020)
 Q-Chem 5.3.0 for Intel X86 EM64T Linux

User input:
--------------------------------------------------------------
$rem
   JOBTYPE  sp
   EXCHANGE   omegaB97X-D
   BASIS   6-311+G(2df,2pd)
   max_scf_cycles   250
   geom_opt_max_cycles   1500
   basis2 6-31G*
   scf_algorithm rca_diis
   SYM_IGNORE  TRUE
   print_input   true
   geom_opt_dmax   80
   pop_mulliken false
   XC_GRID 000075000302
$end

$molecule
0 1
C       1.3355326544     -0.0000002522     0.2608596686
C       -0.0000000436     0.0000010790     -0.4891266064
H       1.4605976167     -0.8828932502     0.8903065910
H       1.4605998559     0.8828922146     0.8903068862
H       2.1446176454     -0.0000015707     -0.4717366961
C       -1.3355327784     0.0000001861     0.2608595683
H       0.0000002561     -0.8674638998     -1.1546509619
H       -0.0000001649     0.8674666481     -1.1546501984
H       -1.4605970366     -0.8828917644     0.8903080734
H       -2.1446178401     -0.0000024097     -0.4717366127
H       -1.4606002255     0.8828936851     0.8903053069
$end
--------------------------------------------------------------

             Standard Nuclear Orientation (Angstroms)
    I     Atom           X                Y                Z
 ----------------------------------------------------------------
    1      C       1.3355326544    -0.0000002522     0.2608596686
    2      C      -0.0000000436     0.0000010790    -0.4891266064
    3      H       1.4605976167    -0.8828932502     0.8903065910
    4      H       1.4605998559     0.8828922146     0.8903068862
    5      H       2.1446176454    -0.0000015707    -0.4717366961
    6      C      -1.3355327784     0.0000001861     0.2608595683
    7      H       0.0000002561    -0.8674638998    -1.1546509619
    8      H      -0.0000001649     0.8674666481    -1.1546501984
    9      H      -1.4605970366    -0.8828917644     0.8903080734
   10      H      -2.1446178401    -0.0000024097    -0.4717366127
   11      H      -1.4606002255     0.8828936851     0.8903053069
 ----------------------------------------------------------------

    7    -119.1001951033      4.28E-06 Convergence criterion met
    6    -119.1430607414      4.09E-06 Convergence criterion met
 Total energy in the final basis set = -119.14306074

                    Orbital Energies (a.u.)
 --------------------------------------------------------------

 Alpha MOs
 -- Occupied --
-10.2751 -10.2667 -10.2667  -0.8765  -0.7825  -0.6752  -0.5422  -0.5179
 -0.4886  -0.4685  -0.4233  -0.4098  -0.4043

                    Cartesian Multipole Moments
 -----------------------------------------------------------------
    Charge (ESU x 10^10)
                 0.0000
    Dipole Moment (Debye)
         X       0.0000      Y      -0.0000      Z      -0.1127
       Tot       0.1127
    Quadrupole Moments (Debye-Ang)
        XX     -22.0648     XY      -0.0000     YY     -21.3911
        XZ       0.0000     YZ       0.0000     ZZ     -21.8060

 Total job time:  26.02s(wall), 71.08s(cpu)
        *  Thank you very much for using Q-Chem.  Have a nice day.  *
