 Q-Chem 5.3 (devel), Q-Chem, Inc., Pleasanton, CA (2020)
 Q-Chem 5.3.0 for Intel X86 EM64T Linux

User input:
--------------------------------------------------------------
$rem
   JOBTYPE  sp
   EXCHANGE   omegaB97X-D
   BASIS   6-311+G(2df,2pd)
   max_scf_cycles   250
   geom_opt_max_cycles   1500
   basis2 6-31G*
   scf_algorithm rca_diis
   SYM_IGNORE  TRUE
   print_input   true
   geom_opt_dmax   80
   pop_mulliken false
   XC_GRID 000075000302
$end

$molecule
0 1
C       0.8172196779     0.9683466689     0.2554861996
C       0.0000096576     -0.0000209189     -0.5913653845
H       1.7123550936     0.5237987830     0.7110514307
H       0.1792283802     1.3187356558     1.0605950287
H       1.1224992477     1.8437301003     -0.3186488247
C       -0.8172296768     -0.9683275459     0.2555270985
H       0.5217818505     -0.7055279643     -1.2423434493
H       -0.5217373235     0.7054388008     -1.2424130640
H       -0.1792015806     -1.3188008351     1.0605721251
H       -1.1226421597     -1.8436715999     -0.3185970457
H       -1.7122832276     -0.5237004788     0.7111809046
$end
--------------------------------------------------------------

             Standard Nuclear Orientation (Angstroms)
    I     Atom           X                Y                Z
 ----------------------------------------------------------------
    1      C       0.8172196779     0.9683466689     0.2554861996
    2      C       0.0000096576    -0.0000209189    -0.5913653845
    3      H       1.7123550936     0.5237987830     0.7110514307
    4      H       0.1792283802     1.3187356558     1.0605950287
    5      H       1.1224992477     1.8437301003    -0.3186488247
    6      C      -0.8172296768    -0.9683275459     0.2555270985
    7      H       0.5217818505    -0.7055279643    -1.2423434493
    8      H      -0.5217373235     0.7054388008    -1.2424130640
    9      H      -0.1792015806    -1.3188008351     1.0605721251
   10      H      -1.1226421597    -1.8436715999    -0.3185970457
   11      H      -1.7122832276    -0.5237004788     0.7111809046
 ----------------------------------------------------------------

    7    -119.0916372913      4.72E-06 Convergence criterion met
    6    -119.1350021090      4.06E-06 Convergence criterion met
 Total energy in the final basis set = -119.13500211

                    Orbital Energies (a.u.)
 --------------------------------------------------------------

 Alpha MOs
 -- Occupied --
-10.2735 -10.2658 -10.2658  -0.8830  -0.7786  -0.6777  -0.5472  -0.5274
 -0.4824  -0.4658  -0.4245  -0.4143  -0.3962

                    Cartesian Multipole Moments
 -----------------------------------------------------------------
    Charge (ESU x 10^10)
                -0.0000
    Dipole Moment (Debye)
         X       0.0000      Y      -0.0000      Z      -0.0534
       Tot       0.0534
    Quadrupole Moments (Debye-Ang)
        XX     -22.1330     XY      -0.4013     YY     -21.3789
        XZ      -0.0000     YZ      -0.0000     ZZ     -21.9369

 Total job time:  26.59s(wall), 72.52s(cpu)
        *  Thank you very much for using Q-Chem.  Have a nice day.  *
