 Q-Chem 5.3 (devel), Q-Chem, Inc., Pleasanton, CA (2020)
 Q-Chem 5.3.0 for Intel X86 EM64T Linux

User input:
--------------------------------------------------------------
$rem
   JOBTYPE  sp
   EXCHANGE   omegaB97X-D
   BASIS   6-311+G(2df,2pd)
   max_scf_cycles   250
   geom_opt_max_cycles   1500
   basis2 6-31G*
   scf_algorithm rca_diis
   SYM_IGNORE  TRUE
   print_input   true
   geom_opt_dmax   80
   pop_mulliken false
   XC_GRID 000075000302
$end

$molecule
0 1
C       1.2552224537     0.2485467339     -0.0376615965
C       -0.0000035108     -0.5712983735     0.2361752766
H       1.5374958774     0.5216611230     -1.0511853638
H       2.0273970021     -0.4201207592     0.3617485284
H       1.2752939044     1.1522843451     0.5722386070
C       -1.2552214814     0.2485547047     -0.0376711743
H       -0.0000083996     -1.2578970379     1.0874442970
H       -0.0000017915     -1.1756029431     -0.6728107985
H       -1.5375218298     0.5215919752     -1.0512090972
H       -1.2752515568     1.1523412912     0.5721570721
H       -2.0274007283     -0.4200603934     0.3618192682
$end
--------------------------------------------------------------

             Standard Nuclear Orientation (Angstroms)
    I     Atom           X                Y                Z
 ----------------------------------------------------------------
    1      C       1.2552224537     0.2485467339    -0.0376615965
    2      C      -0.0000035108    -0.5712983735     0.2361752766
    3      H       1.5374958774     0.5216611230    -1.0511853638
    4      H       2.0273970021    -0.4201207592     0.3617485284
    5      H       1.2752939044     1.1522843451     0.5722386070
    6      C      -1.2552214814     0.2485547047    -0.0376711743
    7      H      -0.0000083996    -1.2578970379     1.0874442970
    8      H      -0.0000017915    -1.1756029431    -0.6728107985
    9      H      -1.5375218298     0.5215919752    -1.0512090972
   10      H      -1.2752515568     1.1523412912     0.5721570721
   11      H      -2.0274007283    -0.4200603934     0.3618192682
 ----------------------------------------------------------------

    7    -119.0762440999      5.79E-06 Convergence criterion met
    5    -119.1200045033      9.23E-06 Convergence criterion met
 Total energy in the final basis set = -119.12000450

                    Orbital Energies (a.u.)
 --------------------------------------------------------------

 Alpha MOs
 -- Occupied --
-10.2756 -10.2633 -10.2633  -0.8844  -0.7782  -0.6768  -0.5473  -0.5186
 -0.4986  -0.4639  -0.4404  -0.3908  -0.3877

                    Cartesian Multipole Moments
 -----------------------------------------------------------------
    Charge (ESU x 10^10)
                -0.0000
    Dipole Moment (Debye)
         X       0.0000      Y      -0.2129      Z      -0.0631
       Tot       0.2221
    Quadrupole Moments (Debye-Ang)
        XX     -22.8931     XY       0.0000     YY     -21.6801
        XZ      -0.0000     YZ      -0.5731     ZZ     -21.0376

 Total job time:  24.51s(wall), 66.30s(cpu)
        *  Thank you very much for using Q-Chem.  Have a nice day.  *
