 Q-Chem 5.3 (devel), Q-Chem, Inc., Pleasanton, CA (2020)
 Q-Chem 5.3.0 for Intel X86 EM64T Linux

User input:
--------------------------------------------------------------
$rem
   JOBTYPE  sp
   EXCHANGE   omegaB97X-D
   BASIS   6-311+G(2df,2pd)
   max_scf_cycles   250
   geom_opt_max_cycles   1500
   basis2 6-31G*
   scf_algorithm rca_diis
   SYM_IGNORE  TRUE
   print_input   true
   geom_opt_dmax   80
   pop_mulliken false
   XC_GRID 000075000302
$end

$molecule
0 1
C       1.2651160355     -0.0000000011     0.2459580756
C       -0.0000002084     0.0000000138     -0.6240710067
H       1.3040622734     -0.8740660387     0.8840656740
H       1.3040622377     0.8740660736     0.8840657702
H       2.1884574341     0.0000000240     -0.3944273125
C       -1.2651165684     -0.0000001850     0.2459583285
H       -0.0000002254     -0.6982454116     -1.1371039464
H       -0.0000003204     0.6982450719     -1.1371036527
H       -1.3040624643     -0.8740635775     0.8840639682
H       -2.1884557047     0.0000005722     -0.3944255393
H       -1.3040625494     0.8740641243     0.8840646600
$end
--------------------------------------------------------------

             Standard Nuclear Orientation (Angstroms)
    I     Atom           X                Y                Z
 ----------------------------------------------------------------
    1      C       1.2651160355    -0.0000000011     0.2459580756
    2      C      -0.0000002084     0.0000000138    -0.6240710067
    3      H       1.3040622734    -0.8740660387     0.8840656740
    4      H       1.3040622377     0.8740660736     0.8840657702
    5      H       2.1884574341     0.0000000240    -0.3944273125
    6      C      -1.2651165684    -0.0000001850     0.2459583285
    7      H      -0.0000002254    -0.6982454116    -1.1371039464
    8      H      -0.0000003204     0.6982450719    -1.1371036527
    9      H      -1.3040624643    -0.8740635775     0.8840639682
   10      H      -2.1884557047     0.0000005722    -0.3944255393
   11      H      -1.3040625494     0.8740641243     0.8840646600
 ----------------------------------------------------------------

    7    -118.9979004297      7.41E-06 Convergence criterion met
    5    -119.0472324633      7.64E-06 Convergence criterion met
 Total energy in the final basis set = -119.04723246

                    Orbital Energies (a.u.)
 --------------------------------------------------------------

 Alpha MOs
 -- Occupied --
-10.2647 -10.2647 -10.2219  -0.8983  -0.7718  -0.7143  -0.5728  -0.5169
 -0.4804  -0.4637  -0.4330  -0.4275  -0.4084

                    Cartesian Multipole Moments
 -----------------------------------------------------------------
    Charge (ESU x 10^10)
                 0.0000
    Dipole Moment (Debye)
         X      -0.0000      Y      -0.0000      Z      -0.2603
       Tot       0.2603
    Quadrupole Moments (Debye-Ang)
        XX     -22.2428     XY      -0.0000     YY     -21.0688
        XZ      -0.0000     YZ      -0.0000     ZZ     -21.1290

 Total job time:  25.01s(wall), 67.53s(cpu)
        *  Thank you very much for using Q-Chem.  Have a nice day.  *
