 Q-Chem 5.3 (devel), Q-Chem, Inc., Pleasanton, CA (2020)
 Q-Chem 5.3.0 for Intel X86 EM64T Linux

User input:
--------------------------------------------------------------
$rem
   JOBTYPE  sp
   EXCHANGE   omegaB97X-D
   BASIS   6-311+G(2df,2pd)
   max_scf_cycles   250
   geom_opt_max_cycles   1500
   basis2 6-31G*
   scf_algorithm rca_diis
   SYM_IGNORE  TRUE
   print_input   true
   geom_opt_dmax   80
   pop_mulliken false
   XC_GRID 000075000302
$end

$molecule
0 1
C       1.2671746130     -0.0544534169     0.2563610220
C       0.0000004380     -0.0538815020     -0.5903922629
H       1.1561477571     -0.8935265192     0.9391380093
H       1.4552590033     0.8421518076     0.8584890792
H       2.1492854644     0.1752217890     -0.3421804282
C       -1.2671735289     -0.0544536294     0.2563616060
H       0.0000001445     -0.9161749726     -1.2634422615
H       -0.0000002733     0.8312679919     -1.2287340280
H       -1.1561465902     -0.8935289467     0.9391356027
H       -2.1492859117     0.1752244904     -0.3421769609
H       -1.4552611767     0.8421535737     0.8584856412
$end
--------------------------------------------------------------

             Standard Nuclear Orientation (Angstroms)
    I     Atom           X                Y                Z
 ----------------------------------------------------------------
    1      C       1.2671746130    -0.0544534169     0.2563610220
    2      C       0.0000004380    -0.0538815020    -0.5903922629
    3      H       1.1561477571    -0.8935265192     0.9391380093
    4      H       1.4552590033     0.8421518076     0.8584890792
    5      H       2.1492854644     0.1752217890    -0.3421804282
    6      C      -1.2671735289    -0.0544536294     0.2563616060
    7      H       0.0000001445    -0.9161749726    -1.2634422615
    8      H      -0.0000002733     0.8312679919    -1.2287340280
    9      H      -1.1561465902    -0.8935289467     0.9391356027
   10      H      -2.1492859117     0.1752244904    -0.3421769609
   11      H      -1.4552611767     0.8421535737     0.8584856412
 ----------------------------------------------------------------

    7    -119.0701752117      6.69E-06 Convergence criterion met
    6    -119.1149121076      3.84E-06 Convergence criterion met
 Total energy in the final basis set = -119.11491211

                    Orbital Energies (a.u.)
 --------------------------------------------------------------

 Alpha MOs
 -- Occupied --
-10.2746 -10.2659 -10.2659  -0.8831  -0.7807  -0.6810  -0.5682  -0.5086
 -0.4937  -0.4732  -0.4172  -0.3984  -0.3929

                    Cartesian Multipole Moments
 -----------------------------------------------------------------
    Charge (ESU x 10^10)
                 0.0000
    Dipole Moment (Debye)
         X      -0.0000      Y       0.2996      Z      -0.0661
       Tot       0.3068
    Quadrupole Moments (Debye-Ang)
        XX     -22.1596     XY      -0.0000     YY     -21.4173
        XZ      -0.0000     YZ      -0.4591     ZZ     -21.9948

 Total job time:  27.72s(wall), 74.70s(cpu)
        *  Thank you very much for using Q-Chem.  Have a nice day.  *
