 Q-Chem 5.2 (devel), Q-Chem, Inc., Pleasanton, CA (2019)
 Q-Chem 5.2.2 for Intel X86 EM64T Linux

User input:
--------------------------------------------------------------
$rem
   JOBTYPE  sp
   EXCHANGE   omegaB97X-D
   BASIS   6-311+G(2df,2pd)
   max_scf_cycles   250
   geom_opt_max_cycles   1500
   basis2 6-31G*
   scf_algorithm rca_diis
   SYM_IGNORE  TRUE
   print_input   true
   geom_opt_dmax   80
   pop_mulliken false
   XC_GRID 000075000302
$end

$molecule
0 1
C       1.2785788961     0.0000000244     0.2837790306
C       0.0000002372     0.0000000445     -0.5723072747
H       1.2557789350     -0.9010933887     0.8975706196
H       1.2557789825     0.9010934263     0.8975706431
H       2.1327029871     0.0000000366     -0.3919846943
C       -1.2785783033     -0.0000000228     0.2837788319
H       0.0000001234     -0.8731035986     -1.2302596623
H       0.0000002400     0.8731036338     -1.2302597440
H       -1.2557796261     -0.9010933765     0.8975705681
H       -2.1327032422     0.0000005416     -0.3919839265
H       -1.2557792903     0.9010933454     0.8975706274
--------------------------------------------------------------

             Standard Nuclear Orientation (Angstroms)
    I     Atom           X                Y                Z
 ----------------------------------------------------------------
    1      C       1.2785788961     0.0000000244     0.2837790306
    2      C       0.0000002372     0.0000000445    -0.5723072747
    3      H       1.2557789350    -0.9010933887     0.8975706196
    4      H       1.2557789825     0.9010934263     0.8975706431
    5      H       2.1327029871     0.0000000366    -0.3919846943
    6      C      -1.2785783033    -0.0000000228     0.2837788319
    7      H       0.0000001234    -0.8731035986    -1.2302596623
    8      H       0.0000002400     0.8731036338    -1.2302597440
    9      H      -1.2557796261    -0.9010933765     0.8975705681
   10      H      -2.1327032422     0.0000005416    -0.3919839265
   11      H      -1.2557792903     0.9010933454     0.8975706274
 ----------------------------------------------------------------

    7    -119.0997000051      4.77E-06 Convergence criterion met
    6    -119.1426621682      4.13E-06 Convergence criterion met
 Total energy in the final basis set = -119.14266217

                    Orbital Energies (a.u.)
 --------------------------------------------------------------

 Alpha MOs
 -- Occupied --
-10.2723 -10.2660 -10.2660  -0.8799  -0.7760  -0.6721  -0.5491  -0.5247
 -0.4824  -0.4700  -0.4143  -0.4109  -0.4098

                    Cartesian Multipole Moments
 -----------------------------------------------------------------
    Charge (ESU x 10^10)
                -0.0000
    Dipole Moment (Debye)
         X      -0.0000      Y       0.0000      Z      -0.1424
       Tot       0.1424
    Quadrupole Moments (Debye-Ang)
        XX     -22.6518     XY      -0.0000     YY     -21.1784
        XZ      -0.0000     YZ      -0.0000     ZZ     -21.9493

 Total job time:  34.71s(wall), 96.64s(cpu)
        *  Thank you very much for using Q-Chem.  Have a nice day.  *
