 Q-Chem 5.3 (devel), Q-Chem, Inc., Pleasanton, CA (2020)
 Q-Chem 5.3.0 for Intel X86 EM64T Linux

User input:
--------------------------------------------------------------
$rem
   JOBTYPE  sp
   EXCHANGE   omegaB97X-D
   BASIS   6-311+G(2df,2pd)
   max_scf_cycles   250
   geom_opt_max_cycles   1500
   basis2 6-31G*
   scf_algorithm rca_diis
   SYM_IGNORE  TRUE
   print_input   true
   geom_opt_dmax   80
   pop_mulliken false
   XC_GRID 000075000302
$end

$molecule
0 1
C       1.2319579859     -0.2967334030     0.2653611240
C       0.0000007703     0.0000068408     -0.5813655481
H       1.9275663984     -0.9216339513     -0.2949052536
H       0.9746954059     -0.8319436227     1.1837580179
H       1.7578973209     0.6170385909     0.5438047118
C       -1.2319579086     0.2967289256     0.2653655010
H       -0.1496322578     -0.8612313159     -1.2368309488
H       0.1496345108     0.8612595443     -1.2368121848
H       -0.9747048706     0.8319645268     1.1837497545
H       -1.7578692677     -0.6170535968     0.5438275076
H       -1.9275881482     0.9215981275     -0.2949076627
$end
--------------------------------------------------------------

             Standard Nuclear Orientation (Angstroms)
    I     Atom           X                Y                Z
 ----------------------------------------------------------------
    1      C       1.2319579859    -0.2967334030     0.2653611240
    2      C       0.0000007703     0.0000068408    -0.5813655481
    3      H       1.9275663984    -0.9216339513    -0.2949052536
    4      H       0.9746954059    -0.8319436227     1.1837580179
    5      H       1.7578973209     0.6170385909     0.5438047118
    6      C      -1.2319579086     0.2967289256     0.2653655010
    7      H      -0.1496322578    -0.8612313159    -1.2368309488
    8      H       0.1496345108     0.8612595443    -1.2368121848
    9      H      -0.9747048706     0.8319645268     1.1837497545
   10      H      -1.7578692677    -0.6170535968     0.5438275076
   11      H      -1.9275881482     0.9215981275    -0.2949076627
 ----------------------------------------------------------------

    7    -119.0979101447      4.52E-06 Convergence criterion met
    6    -119.1410007332      3.86E-06 Convergence criterion met
 Total energy in the final basis set = -119.14100073

                    Orbital Energies (a.u.)
 --------------------------------------------------------------

 Alpha MOs
 -- Occupied --
-10.2729 -10.2643 -10.2643  -0.8809  -0.7772  -0.6772  -0.5451  -0.5238
 -0.4824  -0.4679  -0.4195  -0.4140  -0.4026

                    Cartesian Multipole Moments
 -----------------------------------------------------------------
    Charge (ESU x 10^10)
                -0.0000
    Dipole Moment (Debye)
         X      -0.0000      Y       0.0000      Z      -0.0907
       Tot       0.0907
    Quadrupole Moments (Debye-Ang)
        XX     -22.3315     XY       0.1202     YY     -21.2792
        XZ      -0.0000     YZ       0.0000     ZZ     -21.7932

 Total job time:  25.42s(wall), 70.55s(cpu)
        *  Thank you very much for using Q-Chem.  Have a nice day.  *
