 Q-Chem 5.3 (devel), Q-Chem, Inc., Pleasanton, CA (2020)
 Q-Chem 5.3.0 for Intel X86 EM64T Linux

User input:
--------------------------------------------------------------
$rem
   JOBTYPE  sp
   EXCHANGE   omegaB97X-D
   BASIS   6-311+G(2df,2pd)
   max_scf_cycles   250
   geom_opt_max_cycles   1500
   basis2 6-31G*
   scf_algorithm rca_diis
   SYM_IGNORE  TRUE
   print_input   true
   geom_opt_dmax   80
   pop_mulliken false
   XC_GRID 000075000302
$end

$molecule
0 1
C       0.7756254594     1.0019669815     0.2589886280
C       0.0000107660     -0.0000215832     -0.5878682753
H       1.5038167344     0.5482819024     0.9453210432
H       0.0545074053     1.5467505729     0.8594042262
H       1.2960872016     1.7326442551     -0.3609735571
C       -0.7756358876     -1.0019466201     0.2590339739
H       0.5433944049     -0.6894846297     -1.2383557001
H       -0.5433454959     0.6893922868     -1.2384287135
H       -0.0545161874     -1.5468194942     0.8593694661
H       -1.2962267367     -1.7325629635     -0.3608913961
H       -1.5037177246     -0.5482000418     0.9454453236
$end
--------------------------------------------------------------

             Standard Nuclear Orientation (Angstroms)
    I     Atom           X                Y                Z
 ----------------------------------------------------------------
    1      C       0.7756254594     1.0019669815     0.2589886280
    2      C       0.0000107660    -0.0000215832    -0.5878682753
    3      H       1.5038167344     0.5482819024     0.9453210432
    4      H       0.0545074053     1.5467505729     0.8594042262
    5      H       1.2960872016     1.7326442551    -0.3609735571
    6      C      -0.7756358876    -1.0019466201     0.2590339739
    7      H       0.5433944049    -0.6894846297    -1.2383557001
    8      H      -0.5433454959     0.6893922868    -1.2384287135
    9      H      -0.0545161874    -1.5468194942     0.8593694661
   10      H      -1.2962267367    -1.7325629635    -0.3608913961
   11      H      -1.5037177246    -0.5482000418     0.9454453236
 ----------------------------------------------------------------

    7    -119.0934871832      4.75E-06 Convergence criterion met
    6    -119.1367016981      3.98E-06 Convergence criterion met
 Total energy in the final basis set = -119.13670170

                    Orbital Energies (a.u.)
 --------------------------------------------------------------

 Alpha MOs
 -- Occupied --
-10.2744 -10.2661 -10.2661  -0.8829  -0.7792  -0.6774  -0.5483  -0.5254
 -0.4844  -0.4641  -0.4249  -0.4161  -0.3963

                    Cartesian Multipole Moments
 -----------------------------------------------------------------
    Charge (ESU x 10^10)
                -0.0000
    Dipole Moment (Debye)
         X       0.0000      Y      -0.0000      Z      -0.0703
       Tot       0.0703
    Quadrupole Moments (Debye-Ang)
        XX     -22.1149     XY      -0.3888     YY     -21.4149
        XZ      -0.0000     YZ      -0.0000     ZZ     -21.8946

 Total job time:  27.05s(wall), 73.11s(cpu)
        *  Thank you very much for using Q-Chem.  Have a nice day.  *
