 Q-Chem 5.3 (devel), Q-Chem, Inc., Pleasanton, CA (2020)
 Q-Chem 5.3.0 for Intel X86 EM64T Linux

User input:
--------------------------------------------------------------
$rem
   JOBTYPE  sp
   EXCHANGE   omegaB97X-D
   BASIS   6-311+G(2df,2pd)
   max_scf_cycles   250
   geom_opt_max_cycles   1500
   basis2 6-31G*
   scf_algorithm rca_diis
   SYM_IGNORE  TRUE
   print_input   true
   geom_opt_dmax   80
   pop_mulliken false
   XC_GRID 000075000302
$end

$molecule
0 1
C       1.2671854966     -0.0131060466     0.2589273158
C       0.0000000003     0.0469632141     -0.5856750705
H       1.2264423215     -0.8572793579     0.9505184432
H       1.3904464181     0.8937511617     0.8540580760
H       2.1574101085     -0.1310116425     -0.3597169926
C       -1.2671854452     -0.0131067414     0.2589273826
H       0.0000002475     -0.7883145206     -1.2899325607
H       -0.0000003902     0.9566462418     -1.1909210047
H       -1.2264437209     -0.8572820023     0.9505161420
H       -2.1574102684     -0.1310086693     -0.3597173488
H       -1.3904448284     0.8937490290     0.8540606366
$end
--------------------------------------------------------------

             Standard Nuclear Orientation (Angstroms)
    I     Atom           X                Y                Z
 ----------------------------------------------------------------
    1      C       1.2671854966    -0.0131060466     0.2589273158
    2      C       0.0000000003     0.0469632141    -0.5856750705
    3      H       1.2264423215    -0.8572793579     0.9505184432
    4      H       1.3904464181     0.8937511617     0.8540580760
    5      H       2.1574101085    -0.1310116425    -0.3597169926
    6      C      -1.2671854452    -0.0131067414     0.2589273826
    7      H       0.0000002475    -0.7883145206    -1.2899325607
    8      H      -0.0000003902     0.9566462418    -1.1909210047
    9      H      -1.2264437209    -0.8572820023     0.9505161420
   10      H      -2.1574102684    -0.1310086693    -0.3597173488
   11      H      -1.3904448284     0.8937490290     0.8540606366
 ----------------------------------------------------------------

    7    -119.1025071233      4.48E-06 Convergence criterion met
    6    -119.1454425750      3.88E-06 Convergence criterion met
 Total energy in the final basis set = -119.14544258

                    Orbital Energies (a.u.)
 --------------------------------------------------------------

 Alpha MOs
 -- Occupied --
-10.2739 -10.2650 -10.2650  -0.8812  -0.7771  -0.6777  -0.5457  -0.5245
 -0.4823  -0.4637  -0.4185  -0.4181  -0.4069

                    Cartesian Multipole Moments
 -----------------------------------------------------------------
    Charge (ESU x 10^10)
                -0.0000
    Dipole Moment (Debye)
         X      -0.0000      Y       0.0032      Z      -0.0860
       Tot       0.0861
    Quadrupole Moments (Debye-Ang)
        XX     -22.1769     XY      -0.0000     YY     -21.3560
        XZ      -0.0000     YZ       0.0323     ZZ     -21.8415

 Total job time:  27.42s(wall), 73.83s(cpu)
        *  Thank you very much for using Q-Chem.  Have a nice day.  *
