 Q-Chem 5.3 (devel), Q-Chem, Inc., Pleasanton, CA (2020)
 Q-Chem 5.3.0 for Intel X86 EM64T Linux

User input:
--------------------------------------------------------------
$rem
   JOBTYPE  sp
   EXCHANGE   omegaB97X-D
   BASIS   6-311+G(2df,2pd)
   max_scf_cycles   250
   geom_opt_max_cycles   1500
   basis2 6-31G*
   scf_algorithm rca_diis
   SYM_IGNORE  TRUE
   print_input   true
   geom_opt_dmax   80
   pop_mulliken false
   XC_GRID 000075000302
$end

$molecule
0 1
C       1.2672047091     -0.0214311612     0.2595254650
C       0.0000001311     -0.0202390556     -0.5871810839
H       1.3038441318     -0.8615621733     0.8776894508
H       1.3066828742     0.8999180042     0.9298001765
H       2.1646053825     -0.0168826573     -0.3599624399
C       -1.2672038015     -0.0214314914     0.2595264194
H       0.0000000989     -0.8638407328     -1.2231505204
H       -0.0000001940     0.8839949830     -1.2627272123
H       -1.3038428899     -0.8615597174     0.8776882480
H       -2.1646084249     -0.0168824803     -0.3599638168
H       -1.3066820780     0.8999171480     0.9298003324
$end
--------------------------------------------------------------

             Standard Nuclear Orientation (Angstroms)
    I     Atom           X                Y                Z
 ----------------------------------------------------------------
    1      C       1.2672047091    -0.0214311612     0.2595254650
    2      C       0.0000001311    -0.0202390556    -0.5871810839
    3      H       1.3038441318    -0.8615621733     0.8776894508
    4      H       1.3066828742     0.8999180042     0.9298001765
    5      H       2.1646053825    -0.0168826573    -0.3599624399
    6      C      -1.2672038015    -0.0214314914     0.2595264194
    7      H       0.0000000989    -0.8638407328    -1.2231505204
    8      H      -0.0000001940     0.8839949830    -1.2627272123
    9      H      -1.3038428899    -0.8615597174     0.8776882480
   10      H      -2.1646084249    -0.0168824803    -0.3599638168
   11      H      -1.3066820780     0.8999171480     0.9298003324
 ----------------------------------------------------------------

    7    -119.0957301247      4.56E-06 Convergence criterion met
    6    -119.1389404206      3.86E-06 Convergence criterion met
 Total energy in the final basis set = -119.13894042

                    Orbital Energies (a.u.)
 --------------------------------------------------------------

 Alpha MOs
 -- Occupied --
-10.2740 -10.2650 -10.2650  -0.8818  -0.7780  -0.6788  -0.5461  -0.5244
 -0.4863  -0.4602  -0.4187  -0.4177  -0.4072

                    Cartesian Multipole Moments
 -----------------------------------------------------------------
    Charge (ESU x 10^10)
                -0.0000
    Dipole Moment (Debye)
         X       0.0000      Y      -0.1525      Z      -0.0901
       Tot       0.1771
    Quadrupole Moments (Debye-Ang)
        XX     -22.1639     XY       0.0000     YY     -21.3567
        XZ      -0.0000     YZ       0.0031     ZZ     -21.8506

 Total job time:  26.55s(wall), 72.43s(cpu)
        *  Thank you very much for using Q-Chem.  Have a nice day.  *
