 Q-Chem 5.3 (devel), Q-Chem, Inc., Pleasanton, CA (2020)
 Q-Chem 5.3.0 for Intel X86 EM64T Linux

User input:
--------------------------------------------------------------
$rem
   JOBTYPE  sp
   EXCHANGE   omegaB97X-D
   BASIS   6-311+G(2df,2pd)
   max_scf_cycles   250
   geom_opt_max_cycles   1500
   basis2 6-31G*
   scf_algorithm rca_diis
   SYM_IGNORE  TRUE
   print_input   true
   geom_opt_dmax   80
   pop_mulliken false
   XC_GRID 000075000302
$end

$molecule
0 1
C       1.0026263710     0.7748318519     0.2529062885
C       0.0000056924     -0.0000174834     -0.5939022348
H       1.9022187158     1.0714959997     -0.2998887224
H       1.3185778259     0.1405617007     1.0771733072
H       0.5557470034     1.6711456010     0.6842335258
C       -1.0026318080     -0.7748195033     0.2529292763
H       0.4066864294     -0.7758092169     -1.2469843714
H       -0.4066601625     0.7757370195     -1.2470364581
H       -1.3184898454     -0.1405497716     1.0772339221
H       -0.5558033182     -1.6711804553     0.6842108995
H       -1.9022769643     -1.0713950763     -0.2998304140
$end
--------------------------------------------------------------

             Standard Nuclear Orientation (Angstroms)
    I     Atom           X                Y                Z
 ----------------------------------------------------------------
    1      C       1.0026263710     0.7748318519     0.2529062885
    2      C       0.0000056924    -0.0000174834    -0.5939022348
    3      H       1.9022187158     1.0714959997    -0.2998887224
    4      H       1.3185778259     0.1405617007     1.0771733072
    5      H       0.5557470034     1.6711456010     0.6842335258
    6      C      -1.0026318080    -0.7748195033     0.2529292763
    7      H       0.4066864294    -0.7758092169    -1.2469843714
    8      H      -0.4066601625     0.7757370195    -1.2470364581
    9      H      -1.3184898454    -0.1405497716     1.0772339221
   10      H      -0.5558033182    -1.6711804553     0.6842108995
   11      H      -1.9022769643    -1.0713950763    -0.2998304140
 ----------------------------------------------------------------

    7    -119.0958111769      4.61E-06 Convergence criterion met
    6    -119.1389523564      4.05E-06 Convergence criterion met
 Total energy in the final basis set = -119.13895236

                    Orbital Energies (a.u.)
 --------------------------------------------------------------

 Alpha MOs
 -- Occupied --
-10.2735 -10.2658 -10.2658  -0.8824  -0.7775  -0.6781  -0.5469  -0.5263
 -0.4805  -0.4671  -0.4275  -0.4139  -0.3967

                    Cartesian Multipole Moments
 -----------------------------------------------------------------
    Charge (ESU x 10^10)
                 0.0000
    Dipole Moment (Debye)
         X       0.0000      Y      -0.0000      Z      -0.0583
       Tot       0.0583
    Quadrupole Moments (Debye-Ang)
        XX     -22.1078     XY      -0.2104     YY     -21.2534
        XZ       0.0000     YZ      -0.0000     ZZ     -22.0343

 Total job time:  26.46s(wall), 72.33s(cpu)
        *  Thank you very much for using Q-Chem.  Have a nice day.  *
