 Q-Chem 5.3 (devel), Q-Chem, Inc., Pleasanton, CA (2020)
 Q-Chem 5.3.0 for Intel X86 EM64T Linux

User input:
--------------------------------------------------------------
$rem
   JOBTYPE  sp
   EXCHANGE   omegaB97X-D
   BASIS   6-311+G(2df,2pd)
   max_scf_cycles   250
   geom_opt_max_cycles   1500
   basis2 6-31G*
   scf_algorithm rca_diis
   SYM_IGNORE  TRUE
   print_input   true
   geom_opt_dmax   80
   pop_mulliken false
   XC_GRID 000075000302
$end

$molecule
0 1
C       1.2487340499     0.2155382895     0.2632679777
C       0.0000005067     -0.0000046637     -0.5834477318
H       1.0011451638     0.3356503381     1.3212340975
H       1.7702408216     1.1183660662     -0.0565246021
H       1.9444034132     -0.6193747575     0.1733412979
C       -1.2487341113     -0.2155339853     0.2632697590
H       0.1082085881     -0.8673044885     -1.2390689250
H       -0.1082063935     0.8672841148     -1.2390833596
H       -1.7702597583     -1.1183470183     -0.0565346618
H       -1.9443884993     0.6193930576     0.1733574702
H       -1.0011438414     -0.3356662869     1.3212336968
$end
--------------------------------------------------------------

             Standard Nuclear Orientation (Angstroms)
    I     Atom           X                Y                Z
 ----------------------------------------------------------------
    1      C       1.2487340499     0.2155382895     0.2632679777
    2      C       0.0000005067    -0.0000046637    -0.5834477318
    3      H       1.0011451638     0.3356503381     1.3212340975
    4      H       1.7702408216     1.1183660662    -0.0565246021
    5      H       1.9444034132    -0.6193747575     0.1733412979
    6      C      -1.2487341113    -0.2155339853     0.2632697590
    7      H       0.1082085881    -0.8673044885    -1.2390689250
    8      H      -0.1082063935     0.8672841148    -1.2390833596
    9      H      -1.7702597583    -1.1183470183    -0.0565346618
   10      H      -1.9443884993     0.6193930576     0.1733574702
   11      H      -1.0011438414    -0.3356662869     1.3212336968
 ----------------------------------------------------------------

    7    -119.0912545366      4.21E-06 Convergence criterion met
    6    -119.1346455197      3.94E-06 Convergence criterion met
 Total energy in the final basis set = -119.13464552

                    Orbital Energies (a.u.)
 --------------------------------------------------------------

 Alpha MOs
 -- Occupied --
-10.2714 -10.2632 -10.2632  -0.8809  -0.7763  -0.6775  -0.5445  -0.5271
 -0.4763  -0.4706  -0.4222  -0.4114  -0.3979

                    Cartesian Multipole Moments
 -----------------------------------------------------------------
    Charge (ESU x 10^10)
                -0.0000
    Dipole Moment (Debye)
         X      -0.0000      Y      -0.0000      Z      -0.0957
       Tot       0.0957
    Quadrupole Moments (Debye-Ang)
        XX     -22.4253     XY      -0.1478     YY     -21.2200
        XZ      -0.0000     YZ      -0.0000     ZZ     -21.8047

 Total job time:  26.40s(wall), 72.36s(cpu)
        *  Thank you very much for using Q-Chem.  Have a nice day.  *
