 Q-Chem 5.2 (devel), Q-Chem, Inc., Pleasanton, CA (2019)
 Q-Chem 5.2.2 for Intel X86 EM64T Linux

User input:
--------------------------------------------------------------
$rem
   JOBTYPE  sp
   EXCHANGE   omegaB97X-D
   BASIS   6-311+G(2df,2pd)
   max_scf_cycles   250
   geom_opt_max_cycles   1500
   basis2 6-31G*
   scf_algorithm rca_diis
   SYM_IGNORE  TRUE
   print_input   true
   geom_opt_dmax   80
   pop_mulliken false
   XC_GRID 000075000302
$end

$molecule
0 1
C       1.1710423653     -0.4841262921     0.2661956316
C       0.0000019706     0.0000111117     -0.5805594337
H       2.1059412625     -0.2418326297     -0.2368472433
H       1.1523040505     -1.5673816634     0.4236520766
H       1.1876396877     -0.0000277933     1.2431816424
C       -1.1710435209     0.4841202112     0.2662049981
H       -0.2474046644     -0.8388615961     -1.2354169213
H       0.2474120436     0.8389066590     -1.2353872035
H       -1.1523549433     1.5673803900     0.4236293637
H       -1.1875979572     0.0000449479     1.2432033104
H       -2.1059403550     0.2417673206     -0.2368112020
--------------------------------------------------------------

             Standard Nuclear Orientation (Angstroms)
    I     Atom           X                Y                Z
 ----------------------------------------------------------------
    1      C       1.1710423653    -0.4841262921     0.2661956316
    2      C       0.0000019706     0.0000111117    -0.5805594337
    3      H       2.1059412625    -0.2418326297    -0.2368472433
    4      H       1.1523040505    -1.5673816634     0.4236520766
    5      H       1.1876396877    -0.0000277933     1.2431816424
    6      C      -1.1710435209     0.4841202112     0.2662049981
    7      H      -0.2474046644    -0.8388615961    -1.2354169213
    8      H       0.2474120436     0.8389066590    -1.2353872035
    9      H      -1.1523549433     1.5673803900     0.4236293637
   10      H      -1.1875979572     0.0000449479     1.2432033104
   11      H      -2.1059403550     0.2417673206    -0.2368112020
 ----------------------------------------------------------------

    7    -119.0944958153      4.46E-06 Convergence criterion met
    6    -119.1376693392      3.88E-06 Convergence criterion met
 Total energy in the final basis set = -119.13766934

                    Orbital Energies (a.u.)
 --------------------------------------------------------------

 Alpha MOs
 -- Occupied --
-10.2725 -10.2640 -10.2640  -0.8810  -0.7771  -0.6772  -0.5445  -0.5249
 -0.4815  -0.4691  -0.4205  -0.4169  -0.3956

                    Cartesian Multipole Moments
 -----------------------------------------------------------------
    Charge (ESU x 10^10)
                 0.0000
    Dipole Moment (Debye)
         X      -0.0000      Y      -0.0000      Z      -0.0996
       Tot       0.0996
    Quadrupole Moments (Debye-Ang)
        XX     -22.3595     XY       0.2042     YY     -21.2286
        XZ       0.0000     YZ       0.0000     ZZ     -21.8252

 Total job time:  40.98s(wall), 113.81s(cpu)
        *  Thank you very much for using Q-Chem.  Have a nice day.  *
