 Q-Chem 5.2 (devel), Q-Chem, Inc., Pleasanton, CA (2019)
 Q-Chem 5.2.2 for Intel X86 EM64T Linux

User input:
--------------------------------------------------------------
$rem
   JOBTYPE  sp
   EXCHANGE   omegaB97X-D
   BASIS   6-311+G(2df,2pd)
   max_scf_cycles   250
   geom_opt_max_cycles   1500
   basis2 6-31G*
   scf_algorithm rca_diis
   SYM_IGNORE  TRUE
   print_input   true
   geom_opt_dmax   80
   pop_mulliken false
   XC_GRID 000075000302
$end

$molecule
0 1
C       1.3204865058     0.0000000253     0.2986683773
C       -0.0809648387     -0.0000000136     -0.5851399027
H       1.3579286456     -0.8742471481     0.9545413770
H       1.3579286200     0.8742472009     0.9545413764
H       2.2326539661     0.0000000220     -0.2988964048
C       -1.2178379853     -0.0000001229     0.2167683704
H       -0.1781894628     -0.8717529390     -1.2365606470
H       -0.1781894115     0.8717529239     -1.2365606196
H       -1.2574217569     -0.8867603762     0.8496714845
H       -2.0989725859     0.0000008219     -0.4256597894
H       -1.2574217570     0.8867602718     0.8496713968
--------------------------------------------------------------

             Standard Nuclear Orientation (Angstroms)
    I     Atom           X                Y                Z
 ----------------------------------------------------------------
    1      C       1.3204865058     0.0000000253     0.2986683773
    2      C      -0.0809648387    -0.0000000136    -0.5851399027
    3      H       1.3579286456    -0.8742471481     0.9545413770
    4      H       1.3579286200     0.8742472009     0.9545413764
    5      H       2.2326539661     0.0000000220    -0.2988964048
    6      C      -1.2178379853    -0.0000001229     0.2167683704
    7      H      -0.1781894628    -0.8717529390    -1.2365606470
    8      H      -0.1781894115     0.8717529239    -1.2365606196
    9      H      -1.2574217569    -0.8867603762     0.8496714845
   10      H      -2.0989725859     0.0000008219    -0.4256597894
   11      H      -1.2574217570     0.8867602718     0.8496713968
 ----------------------------------------------------------------

    7    -119.0794597258      5.22E-06 Convergence criterion met
    6    -119.1233746061      4.64E-06 Convergence criterion met
 Total energy in the final basis set = -119.12337461

                    Orbital Energies (a.u.)
 --------------------------------------------------------------

 Alpha MOs
 -- Occupied --
-10.2744 -10.2731 -10.2548  -0.8940  -0.7759  -0.6738  -0.5525  -0.5297
 -0.4815  -0.4640  -0.4371  -0.4024  -0.3971

                    Cartesian Multipole Moments
 -----------------------------------------------------------------
    Charge (ESU x 10^10)
                -0.0000
    Dipole Moment (Debye)
         X      -0.0845      Y       0.0000      Z      -0.0812
       Tot       0.1172
    Quadrupole Moments (Debye-Ang)
        XX     -22.0838     XY      -0.0000     YY     -21.3618
        XZ       0.6230     YZ      -0.0000     ZZ     -21.8741

 Total job time:  34.97s(wall), 97.80s(cpu)
        *  Thank you very much for using Q-Chem.  Have a nice day.  *
