 Q-Chem 5.3 (devel), Q-Chem, Inc., Pleasanton, CA (2020)
 Q-Chem 5.3.0 for Intel X86 EM64T Linux

User input:
--------------------------------------------------------------
$rem
   JOBTYPE  sp
   EXCHANGE   omegaB97X-D
   BASIS   6-311+G(2df,2pd)
   max_scf_cycles   250
   geom_opt_max_cycles   1500
   basis2 6-31G*
   scf_algorithm rca_diis
   SYM_IGNORE  TRUE
   print_input   true
   geom_opt_dmax   80
   pop_mulliken false
   XC_GRID 000075000302
$end

$molecule
0 1
C       1.2636733684     0.0529549227     0.2580737018
C       -0.0000000280     -0.0566024968     -0.5868214437
H       1.2387011150     -0.8559706575     0.8672016147
H       1.3640469652     0.9031204091     0.9316474157
H       2.1585035562     -0.0607231035     -0.3546894134
C       -1.2636733749     0.0529550782     0.2580736564
H       0.0000001929     -0.8849908894     -1.2978100143
H       -0.0000002367     0.8628300341     -1.1787900799
H       -1.2387012741     -0.8559704825     0.8672016324
H       -2.1585036185     -0.0607227689     -0.3546894061
H       -1.3640467261     0.9031206204     0.9316473551
$end
--------------------------------------------------------------

             Standard Nuclear Orientation (Angstroms)
    I     Atom           X                Y                Z
 ----------------------------------------------------------------
    1      C       1.2636733684     0.0529549227     0.2580737018
    2      C      -0.0000000280    -0.0566024968    -0.5868214437
    3      H       1.2387011150    -0.8559706575     0.8672016147
    4      H       1.3640469652     0.9031204091     0.9316474157
    5      H       2.1585035562    -0.0607231035    -0.3546894134
    6      C      -1.2636733749     0.0529550782     0.2580736564
    7      H       0.0000001929    -0.8849908894    -1.2978100143
    8      H      -0.0000002367     0.8628300341    -1.1787900799
    9      H      -1.2387012741    -0.8559704825     0.8672016324
   10      H      -2.1585036185    -0.0607227689    -0.3546894061
   11      H      -1.3640467261     0.9031206204     0.9316473551
 ----------------------------------------------------------------

    7    -119.0915943740      4.98E-06 Convergence criterion met
    6    -119.1349155948      3.90E-06 Convergence criterion met
 Total energy in the final basis set = -119.13491559

                    Orbital Energies (a.u.)
 --------------------------------------------------------------

 Alpha MOs
 -- Occupied --
-10.2748 -10.2653 -10.2653  -0.8830  -0.7777  -0.6778  -0.5475  -0.5244
 -0.4896  -0.4564  -0.4348  -0.4169  -0.3873

                    Cartesian Multipole Moments
 -----------------------------------------------------------------
    Charge (ESU x 10^10)
                -0.0000
    Dipole Moment (Debye)
         X      -0.0000      Y      -0.0243      Z      -0.0907
       Tot       0.0939
    Quadrupole Moments (Debye-Ang)
        XX     -22.2180     XY      -0.0000     YY     -21.3271
        XZ       0.0000     YZ       0.7240     ZZ     -21.9033

 Total job time:  25.36s(wall), 70.47s(cpu)
        *  Thank you very much for using Q-Chem.  Have a nice day.  *
