 Q-Chem 5.2 (devel), Q-Chem, Inc., Pleasanton, CA (2019)
 Q-Chem 5.2.2 for Intel X86 EM64T Linux

User input:
--------------------------------------------------------------
$rem
   JOBTYPE  sp
   EXCHANGE   omegaB97X-D
   BASIS   6-311+G(2df,2pd)
   max_scf_cycles   250
   geom_opt_max_cycles   1500
   basis2 6-31G*
   scf_algorithm rca_diis
   SYM_IGNORE  TRUE
   print_input   true
   geom_opt_dmax   80
   pop_mulliken false
   XC_GRID 000075000302
$end

$molecule
0 1
C       1.1598884005     -0.5102629519     0.2656169840
C       0.0000021656     0.0000116542     -0.5811429656
H       2.0983835565     -0.1568428060     -0.1583657961
H       1.2042475310     -1.6038012503     0.2995096248
H       1.1020812117     -0.1414096161     1.2901824595
C       -1.1598898838     0.5102566018     0.2656271375
H       -0.2613128023     -0.8347201324     -1.2358895383
H       0.2613211237     0.8347673915     -1.2358582964
H       -1.2043045278     1.6037928950     0.2994876807
H       -1.1020407388     0.1414323121     1.2902007626
H       -2.0983760969     0.1567765682     -0.1583230339
--------------------------------------------------------------

             Standard Nuclear Orientation (Angstroms)
    I     Atom           X                Y                Z
 ----------------------------------------------------------------
    1      C       1.1598884005    -0.5102629519     0.2656169840
    2      C       0.0000021656     0.0000116542    -0.5811429656
    3      H       2.0983835565    -0.1568428060    -0.1583657961
    4      H       1.2042475310    -1.6038012503     0.2995096248
    5      H       1.1020812117    -0.1414096161     1.2901824595
    6      C      -1.1598898838     0.5102566018     0.2656271375
    7      H      -0.2613128023    -0.8347201324    -1.2358895383
    8      H       0.2613211237     0.8347673915    -1.2358582964
    9      H      -1.2043045278     1.6037928950     0.2994876807
   10      H      -1.1020407388     0.1414323121     1.2902007626
   11      H      -2.0983760969     0.1567765682    -0.1583230339
 ----------------------------------------------------------------

    7    -119.0915571762      4.37E-06 Convergence criterion met
    6    -119.1348733684      3.92E-06 Convergence criterion met
 Total energy in the final basis set = -119.13487337

                    Orbital Energies (a.u.)
 --------------------------------------------------------------

 Alpha MOs
 -- Occupied --
-10.2719 -10.2636 -10.2635  -0.8810  -0.7768  -0.6773  -0.5444  -0.5262
 -0.4797  -0.4699  -0.4214  -0.4160  -0.3934

                    Cartesian Multipole Moments
 -----------------------------------------------------------------
    Charge (ESU x 10^10)
                 0.0000
    Dipole Moment (Debye)
         X      -0.0000      Y      -0.0000      Z      -0.0991
       Tot       0.0991
    Quadrupole Moments (Debye-Ang)
        XX     -22.3984     XY       0.2367     YY     -21.2147
        XZ       0.0000     YZ       0.0000     ZZ     -21.8226

 Total job time:  42.47s(wall), 117.83s(cpu)
        *  Thank you very much for using Q-Chem.  Have a nice day.  *
