 Q-Chem 5.3 (devel), Q-Chem, Inc., Pleasanton, CA (2020)
 Q-Chem 5.3.0 for Intel X86 EM64T Linux

User input:
--------------------------------------------------------------
$rem
   JOBTYPE  sp
   EXCHANGE   omegaB97X-D
   BASIS   6-311+G(2df,2pd)
   max_scf_cycles   250
   geom_opt_max_cycles   1500
   basis2 6-31G*
   scf_algorithm rca_diis
   SYM_IGNORE  TRUE
   print_input   true
   geom_opt_dmax   80
   pop_mulliken false
   XC_GRID 000075000302
$end

$molecule
0 1
C       1.3685388762     0.0000001592     0.2562894855
C       -0.0000000008     -0.0000000044     -0.7217727300
H       1.2967364853     -0.8671718642     0.9179138486
H       1.2967370188     0.8671717618     0.9179144393
H       2.3664665787     -0.0000001443     -0.1855376848
C       -1.3685390149     -0.0000002349     0.2562894100
H       0.0000007622     -0.8754799811     -1.3751714387
H       -0.0000003691     0.8754801042     -1.3751712615
H       -1.2967370029     -0.8671715808     0.9179146692
H       -2.3664668433     0.0000006715     -0.1855374611
H       -1.2967365508     0.8671717789     0.9179137425
$end
--------------------------------------------------------------

             Standard Nuclear Orientation (Angstroms)
    I     Atom           X                Y                Z
 ----------------------------------------------------------------
    1      C       1.3685388762     0.0000001592     0.2562894855
    2      C      -0.0000000008    -0.0000000044    -0.7217727300
    3      H       1.2967364853    -0.8671718642     0.9179138486
    4      H       1.2967370188     0.8671717618     0.9179144393
    5      H       2.3664665787    -0.0000001443    -0.1855376848
    6      C      -1.3685390149    -0.0000002349     0.2562894100
    7      H       0.0000007622    -0.8754799811    -1.3751714387
    8      H      -0.0000003691     0.8754801042    -1.3751712615
    9      H      -1.2967370029    -0.8671715808     0.9179146692
   10      H      -2.3664668433     0.0000006715    -0.1855374611
   11      H      -1.2967365508     0.8671717789     0.9179137425
 ----------------------------------------------------------------

    7    -119.0782048721      4.42E-06 Convergence criterion met
    5    -119.1205909712      9.35E-06 Convergence criterion met
 Total energy in the final basis set = -119.12059097

                    Orbital Energies (a.u.)
 --------------------------------------------------------------

 Alpha MOs
 -- Occupied --
-10.2997 -10.2782 -10.2782  -0.8456  -0.7694  -0.6921  -0.5254  -0.5129
 -0.4661  -0.4596  -0.4219  -0.4161  -0.4111

                    Cartesian Multipole Moments
 -----------------------------------------------------------------
    Charge (ESU x 10^10)
                -0.0000
    Dipole Moment (Debye)
         X       0.0000      Y       0.0000      Z       0.0336
       Tot       0.0336
    Quadrupole Moments (Debye-Ang)
        XX     -21.4044     XY      -0.0000     YY     -21.7262
        XZ      -0.0000     YZ      -0.0000     ZZ     -21.9180

 Total job time:  24.66s(wall), 65.52s(cpu)
        *  Thank you very much for using Q-Chem.  Have a nice day.  *
