 Q-Chem 5.2 (devel), Q-Chem, Inc., Pleasanton, CA (2019)
 Q-Chem 5.2.2 for Intel X86 EM64T Linux

User input:
--------------------------------------------------------------
$rem
   JOBTYPE  sp
   EXCHANGE   omegaB97X-D
   BASIS   6-311+G(2df,2pd)
   max_scf_cycles   250
   geom_opt_max_cycles   1500
   basis2 6-31G*
   scf_algorithm rca_diis
   SYM_IGNORE  TRUE
   print_input   true
   geom_opt_dmax   80
   pop_mulliken false
   XC_GRID 000075000302
$end

$molecule
0 1
C       1.2671360281     -0.0131539991     0.2590966024
C       0.0000002907     -0.0000000515     -0.5876113022
H       1.2508008518     -0.8814723907     0.9175351307
H       1.3598506010     0.8763985226     0.8889174035
H       2.1633220372     0.0604958697     -0.3577898011
C       -1.2671355687     0.0131537094     0.2590971421
H       -0.0133005391     -0.8737744312     -1.2434298763
H       0.0132997478     0.8737743321     -1.2434298876
H       -1.3598497215     -0.8764008137     0.8889150111
H       -2.1633227408     -0.0604946156     -0.3577878607
H       -1.2508010473     0.8814745339     0.9175324571
--------------------------------------------------------------

             Standard Nuclear Orientation (Angstroms)
    I     Atom           X                Y                Z
 ----------------------------------------------------------------
    1      C       1.2671360281    -0.0131539991     0.2590966024
    2      C       0.0000002907    -0.0000000515    -0.5876113022
    3      H       1.2508008518    -0.8814723907     0.9175351307
    4      H       1.3598506010     0.8763985226     0.8889174035
    5      H       2.1633220372     0.0604958697    -0.3577898011
    6      C      -1.2671355687     0.0131537094     0.2590971421
    7      H      -0.0133005391    -0.8737744312    -1.2434298763
    8      H       0.0132997478     0.8737743321    -1.2434298876
    9      H      -1.3598497215    -0.8764008137     0.8889150111
   10      H      -2.1633227408    -0.0604946156    -0.3577878607
   11      H      -1.2508010473     0.8814745339     0.9175324571
 ----------------------------------------------------------------

    7    -119.0995581729      4.69E-06 Convergence criterion met
    6    -119.1426604076      3.89E-06 Convergence criterion met
 Total energy in the final basis set = -119.14266041

                    Orbital Energies (a.u.)
 --------------------------------------------------------------

 Alpha MOs
 -- Occupied --
-10.2741 -10.2652 -10.2652  -0.8813  -0.7775  -0.6780  -0.5466  -0.5270
 -0.4821  -0.4607  -0.4231  -0.4173  -0.4022

                    Cartesian Multipole Moments
 -----------------------------------------------------------------
    Charge (ESU x 10^10)
                -0.0000
    Dipole Moment (Debye)
         X      -0.0000      Y       0.0000      Z      -0.0825
       Tot       0.0825
    Quadrupole Moments (Debye-Ang)
        XX     -22.1601     XY       0.5337     YY     -21.3719
        XZ       0.0000     YZ      -0.0000     ZZ     -21.8596

 Total job time:  35.08s(wall), 97.59s(cpu)
        *  Thank you very much for using Q-Chem.  Have a nice day.  *
