 Q-Chem 5.2 (devel), Q-Chem, Inc., Pleasanton, CA (2019)
 Q-Chem 5.2.2 for Intel X86 EM64T Linux

User input:
--------------------------------------------------------------
$rem
   JOBTYPE  sp
   EXCHANGE   omegaB97X-D
   BASIS   6-311+G(2df,2pd)
   max_scf_cycles   250
   geom_opt_max_cycles   1500
   basis2 6-31G*
   scf_algorithm rca_diis
   SYM_IGNORE  TRUE
   print_input   true
   geom_opt_dmax   80
   pop_mulliken false
   XC_GRID 000075000302
$end

$molecule
0 1
C       1.2625498318     0.1963951116     0.1197464812
C       -0.0000017938     -0.5844027969     -0.2252837758
H       2.1796054802     -0.0879949729     -0.3938219217
H       1.4119536623     0.0213941388     1.1901833992
H       1.1178593916     1.2686106110     -0.0165080442
C       -1.2625485312     0.1964042515     0.1197421222
H       -0.0000057666     -1.6328798280     0.0843685854
H       0.0000001499     -0.5795740025     -1.3172140569
H       -2.1796125972     -0.0880210666     -0.3937927887
H       -1.1178715501     1.2686144711     -0.0165661819
H       -1.4119283375     0.0214547490     1.1901912000
--------------------------------------------------------------

             Standard Nuclear Orientation (Angstroms)
    I     Atom           X                Y                Z
 ----------------------------------------------------------------
    1      C       1.2625498318     0.1963951116     0.1197464812
    2      C      -0.0000017938    -0.5844027969    -0.2252837758
    3      H       2.1796054802    -0.0879949729    -0.3938219217
    4      H       1.4119536623     0.0213941388     1.1901833992
    5      H       1.1178593916     1.2686106110    -0.0165080442
    6      C      -1.2625485312     0.1964042515     0.1197421222
    7      H      -0.0000057666    -1.6328798280     0.0843685854
    8      H       0.0000001499    -0.5795740025    -1.3172140569
    9      H      -2.1796125972    -0.0880210666    -0.3937927887
   10      H      -1.1178715501     1.2686144711    -0.0165661819
   11      H      -1.4119283375     0.0214547490     1.1901912000
 ----------------------------------------------------------------

    7    -119.0912940722      4.76E-06 Convergence criterion met
    6    -119.1346613554      4.17E-06 Convergence criterion met
 Total energy in the final basis set = -119.13466136

                    Orbital Energies (a.u.)
 --------------------------------------------------------------

 Alpha MOs
 -- Occupied --
-10.2737 -10.2658 -10.2658  -0.8836  -0.7766  -0.6783  -0.5479  -0.5291
 -0.4758  -0.4655  -0.4304  -0.4228  -0.3860

                    Cartesian Multipole Moments
 -----------------------------------------------------------------
    Charge (ESU x 10^10)
                -0.0000
    Dipole Moment (Debye)
         X      -0.0000      Y      -0.0372      Z      -0.0706
       Tot       0.0798
    Quadrupole Moments (Debye-Ang)
        XX     -22.0232     XY       0.0000     YY     -21.4567
        XZ      -0.0000     YZ      -0.4987     ZZ     -21.9593

 Total job time:  40.81s(wall), 113.14s(cpu)
        *  Thank you very much for using Q-Chem.  Have a nice day.  *
