 Q-Chem 5.3 (devel), Q-Chem, Inc., Pleasanton, CA (2020)
 Q-Chem 5.3.0 for Intel X86 EM64T Linux

User input:
--------------------------------------------------------------
$rem
   JOBTYPE  sp
   EXCHANGE   omegaB97X-D
   BASIS   6-311+G(2df,2pd)
   max_scf_cycles   250
   geom_opt_max_cycles   1500
   basis2 6-31G*
   scf_algorithm rca_diis
   SYM_IGNORE  TRUE
   print_input   true
   geom_opt_dmax   80
   pop_mulliken false
   XC_GRID 000075000302
$end

$molecule
0 1
C       0.9143820896     -0.8771855134     0.2508628056
C       0.0000064887     0.0000175465     -0.5959834298
H       0.6938886773     -0.6810052267     1.2961704222
H       1.9833419032     -0.6825977384     0.0956085513
H       0.7298984112     -1.9372700256     0.0739203672
C       -0.9143914602     0.8771699496     0.2508915986
H       -0.4660299079     -0.7424437727     -1.2481460373
H       0.4660598843     0.7425199603     -1.2480887406
H       -1.9833442377     0.6824845696     0.0957209053
H       -0.7300029238     1.9372627558     0.0738990349
H       -0.6938089852     0.6810481611     1.2961895416
$end
--------------------------------------------------------------

             Standard Nuclear Orientation (Angstroms)
    I     Atom           X                Y                Z
 ----------------------------------------------------------------
    1      C       0.9143820896    -0.8771855134     0.2508628056
    2      C       0.0000064887     0.0000175465    -0.5959834298
    3      H       0.6938886773    -0.6810052267     1.2961704222
    4      H       1.9833419032    -0.6825977384     0.0956085513
    5      H       0.7298984112    -1.9372700256     0.0739203672
    6      C      -0.9143914602     0.8771699496     0.2508915986
    7      H      -0.4660299079    -0.7424437727    -1.2481460373
    8      H       0.4660598843     0.7425199603    -1.2480887406
    9      H      -1.9833442377     0.6824845696     0.0957209053
   10      H      -0.7300029238     1.9372627558     0.0738990349
   11      H      -0.6938089852     0.6810481611     1.2961895416
 ----------------------------------------------------------------

    7    -119.0832677597      4.29E-06 Convergence criterion met
    6    -119.1271045747      4.14E-06 Convergence criterion met
 Total energy in the final basis set = -119.12710457

                    Orbital Energies (a.u.)
 --------------------------------------------------------------

 Alpha MOs
 -- Occupied --
-10.2713 -10.2641 -10.2641  -0.8829  -0.7767  -0.6788  -0.5456  -0.5327
 -0.4719  -0.4717  -0.4201  -0.4175  -0.3912

                    Cartesian Multipole Moments
 -----------------------------------------------------------------
    Charge (ESU x 10^10)
                -0.0000
    Dipole Moment (Debye)
         X       0.0000      Y       0.0000      Z      -0.0576
       Tot       0.0576
    Quadrupole Moments (Debye-Ang)
        XX     -22.1087     XY       0.4908     YY     -21.3417
        XZ      -0.0000     YZ       0.0000     ZZ     -22.0448

 Total job time:  26.11s(wall), 71.80s(cpu)
        *  Thank you very much for using Q-Chem.  Have a nice day.  *
