 Q-Chem 5.3 (devel), Q-Chem, Inc., Pleasanton, CA (2020)
 Q-Chem 5.3.0 for Intel X86 EM64T Linux

User input:
--------------------------------------------------------------
$rem
   JOBTYPE  sp
   EXCHANGE   omegaB97X-D
   BASIS   6-311+G(2df,2pd)
   max_scf_cycles   250
   geom_opt_max_cycles   1500
   basis2 6-31G*
   scf_algorithm rca_diis
   SYM_IGNORE  TRUE
   print_input   true
   geom_opt_dmax   80
   pop_mulliken false
   XC_GRID 000075000302
$end

$molecule
0 1
C       1.2176698806     -0.3507681759     0.2663651385
C       0.0000010741     0.0000081147     -0.5803684908
H       2.0121353950     -0.7378702442     -0.3712376902
H       0.9905117469     -1.1180564771     1.0123320217
H       1.6089368666     0.5227156235     0.7889150884
C       -1.2176699861     0.3507632255     0.2663708397
H       -0.1774941582     -0.8560320085     -1.2356903499
H       0.1774975939     0.8560652475     -1.2356683870
H       -0.9905314210     1.1180760413     1.0123177110
H       -1.6089020851     -0.5227240313     0.7889412126
H       -2.0121549673     0.7378233506     -0.3712320752
$end
--------------------------------------------------------------

             Standard Nuclear Orientation (Angstroms)
    I     Atom           X                Y                Z
 ----------------------------------------------------------------
    1      C       1.2176698806    -0.3507681759     0.2663651385
    2      C       0.0000010741     0.0000081147    -0.5803684908
    3      H       2.0121353950    -0.7378702442    -0.3712376902
    4      H       0.9905117469    -1.1180564771     1.0123320217
    5      H       1.6089368666     0.5227156235     0.7889150884
    6      C      -1.2176699861     0.3507632255     0.2663708397
    7      H      -0.1774941582    -0.8560320085    -1.2356903499
    8      H       0.1774975939     0.8560652475    -1.2356683870
    9      H      -0.9905314210     1.1180760413     1.0123177110
   10      H      -1.6089020851    -0.5227240313     0.7889412126
   11      H      -2.0121549673     0.7378233506    -0.3712320752
 ----------------------------------------------------------------

    7    -119.1012725374      4.60E-06 Convergence criterion met
    5    -119.1442355440      9.98E-06 Convergence criterion met
 Total energy in the final basis set = -119.14423554

                    Orbital Energies (a.u.)
 --------------------------------------------------------------

 Alpha MOs
 -- Occupied --
-10.2743 -10.2645 -10.2645  -0.8810  -0.7775  -0.6773  -0.5457  -0.5226
 -0.4847  -0.4651  -0.4192  -0.4161  -0.4050

                    Cartesian Multipole Moments
 -----------------------------------------------------------------
    Charge (ESU x 10^10)
                -0.0000
    Dipole Moment (Debye)
         X      -0.0000      Y       0.0000      Z      -0.0975
       Tot       0.0975
    Quadrupole Moments (Debye-Ang)
        XX     -22.3001     XY       0.1072     YY     -21.3082
        XZ       0.0000     YZ       0.0000     ZZ     -21.7798

 Total job time:  24.46s(wall), 65.89s(cpu)
        *  Thank you very much for using Q-Chem.  Have a nice day.  *
