 Q-Chem 5.3 (devel), Q-Chem, Inc., Pleasanton, CA (2020)
 Q-Chem 5.3.0 for Intel X86 EM64T Linux

User input:
--------------------------------------------------------------
$rem
   JOBTYPE  sp
   EXCHANGE   omegaB97X-D
   BASIS   6-311+G(2df,2pd)
   max_scf_cycles   250
   geom_opt_max_cycles   1500
   basis2 6-31G*
   scf_algorithm rca_diis
   SYM_IGNORE  TRUE
   print_input   true
   geom_opt_dmax   80
   pop_mulliken false
   XC_GRID 000075000302
$end

$molecule
0 1
C       1.2534644690     -0.1046534335     0.2537895392
C       0.0000000317     0.1129858741     -0.5853648581
H       1.4117750796     -0.9238617336     0.9500574686
H       1.1692178076     0.8296907248     0.8224315760
H       2.1405511419     0.1199350924     -0.3393037046
C       -1.2534645041     -0.1046535911     0.2537895509
H       -0.0000002470     -0.8513299590     -1.1029612748
H       0.0000002155     0.8961227694     -1.3445787559
H       -1.4117746956     -0.9238619099     0.9500574369
H       -2.1405509648     0.1199361900     -0.3393035446
H       -1.1692183943     0.8296906425     0.8224315853
$end
--------------------------------------------------------------

             Standard Nuclear Orientation (Angstroms)
    I     Atom           X                Y                Z
 ----------------------------------------------------------------
    1      C       1.2534644690    -0.1046534335     0.2537895392
    2      C       0.0000000317     0.1129858741    -0.5853648581
    3      H       1.4117750796    -0.9238617336     0.9500574686
    4      H       1.1692178076     0.8296907248     0.8224315760
    5      H       2.1405511419     0.1199350924    -0.3393037046
    6      C      -1.2534645041    -0.1046535911     0.2537895509
    7      H      -0.0000002470    -0.8513299590    -1.1029612748
    8      H       0.0000002155     0.8961227694    -1.3445787559
    9      H      -1.4117746956    -0.9238619099     0.9500574369
   10      H      -2.1405509648     0.1199361900    -0.3393035446
   11      H      -1.1692183943     0.8296906425     0.8224315853
 ----------------------------------------------------------------

    7    -119.0571264195      7.01E-06 Convergence criterion met
    5    -119.1017417181      9.91E-06 Convergence criterion met
 Total energy in the final basis set = -119.10174172

                    Orbital Energies (a.u.)
 --------------------------------------------------------------

 Alpha MOs
 -- Occupied --
-10.2774 -10.2656 -10.2656  -0.8888  -0.7795  -0.6780  -0.5529  -0.5256
 -0.5012  -0.4525  -0.4439  -0.4120  -0.3596

                    Cartesian Multipole Moments
 -----------------------------------------------------------------
    Charge (ESU x 10^10)
                -0.0000
    Dipole Moment (Debye)
         X      -0.0000      Y       0.0471      Z      -0.1077
       Tot       0.1175
    Quadrupole Moments (Debye-Ang)
        XX     -22.3708     XY      -0.0000     YY     -21.2243
        XZ      -0.0000     YZ      -1.4289     ZZ     -22.0922

 Total job time:  24.85s(wall), 67.06s(cpu)
        *  Thank you very much for using Q-Chem.  Have a nice day.  *
