 Q-Chem 5.3 (devel), Q-Chem, Inc., Pleasanton, CA (2020)
 Q-Chem 5.3.0 for Intel X86 EM64T Linux

User input:
--------------------------------------------------------------
$rem
   JOBTYPE  sp
   EXCHANGE   omegaB97X-D
   BASIS   6-311+G(2df,2pd)
   max_scf_cycles   250
   geom_opt_max_cycles   1500
   basis2 6-31G*
   scf_algorithm rca_diis
   SYM_IGNORE  TRUE
   print_input   true
   geom_opt_dmax   80
   pop_mulliken false
   XC_GRID 000075000302
$end

$molecule
0 1
C       1.1823698953     0.0000000729     0.2474427672
C       -0.0159157321     -0.0000002853     -0.5792193502
H       1.3966558744     -0.8337154531     0.9252350727
H       1.3966554232     0.8337156779     0.9252350938
H       2.1676334536     0.0000000035     -0.2310992702
C       -1.3555125369     -0.0000004921     0.2815880076
H       -0.1374733299     -0.8681073312     -1.2314237658
H       -0.1374731422     0.8681069553     -1.2314235732
H       -1.1850727961     -0.9066635067     0.8585531027
H       -2.1267932192     0.0000019386     -0.4823959408
H       -1.1850739507     0.9066630863     0.8585528751
$end
--------------------------------------------------------------

             Standard Nuclear Orientation (Angstroms)
    I     Atom           X                Y                Z
 ----------------------------------------------------------------
    1      C       1.1823698953     0.0000000729     0.2474427672
    2      C      -0.0159157321    -0.0000002853    -0.5792193502
    3      H       1.3966558744    -0.8337154531     0.9252350727
    4      H       1.3966554232     0.8337156779     0.9252350938
    5      H       2.1676334536     0.0000000035    -0.2310992702
    6      C      -1.3555125369    -0.0000004921     0.2815880076
    7      H      -0.1374733299    -0.8681073312    -1.2314237658
    8      H      -0.1374731422     0.8681069553    -1.2314235732
    9      H      -1.1850727961    -0.9066635067     0.8585531027
   10      H      -2.1267932192     0.0000019386    -0.4823959408
   11      H      -1.1850739507     0.9066630863     0.8585528751
 ----------------------------------------------------------------

    7    -119.0718432289      5.60E-06 Convergence criterion met
    6    -119.1165332274      5.15E-06 Convergence criterion met
 Total energy in the final basis set = -119.11653323

                    Orbital Energies (a.u.)
 --------------------------------------------------------------

 Alpha MOs
 -- Occupied --
-10.2751 -10.2677 -10.2650  -0.8865  -0.7819  -0.6795  -0.5486  -0.5415
 -0.4706  -0.4623  -0.4515  -0.4042  -0.3796

                    Cartesian Multipole Moments
 -----------------------------------------------------------------
    Charge (ESU x 10^10)
                 0.0000
    Dipole Moment (Debye)
         X       0.2343      Y       0.0000      Z      -0.1438
       Tot       0.2749
    Quadrupole Moments (Debye-Ang)
        XX     -22.2574     XY      -0.0000     YY     -21.4872
        XZ       1.4960     YZ      -0.0000     ZZ     -22.0281

 Total job time:  26.70s(wall), 72.71s(cpu)
        *  Thank you very much for using Q-Chem.  Have a nice day.  *
