 Q-Chem 5.2 (devel), Q-Chem, Inc., Pleasanton, CA (2019)
 Q-Chem 5.2.2 for Intel X86 EM64T Linux

User input:
--------------------------------------------------------------
$rem
   JOBTYPE  sp
   EXCHANGE   omegaB97X-D
   BASIS   6-311+G(2df,2pd)
   max_scf_cycles   250
   geom_opt_max_cycles   1500
   basis2 6-31G*
   scf_algorithm rca_diis
   SYM_IGNORE  TRUE
   print_input   true
   geom_opt_dmax   80
   pop_mulliken false
   XC_GRID 000075000302
$end

$molecule
0 1
C       1.2560915525     0.2470518912     -0.0236792138
C       -0.0000034294     -0.5894041797     0.1891564460
H       1.6116724088     0.4696376874     -1.0266540155
H       2.0107642117     -0.3739401413     0.4736599209
H       1.2034043996     1.1846664357     0.5306301582
C       -1.2560906374     0.2470602696     -0.0236882058
H       -0.0000082585     -1.3258656085     0.9976239066
H       -0.0000017340     -1.1396178574     -0.7536060183
H       -1.6117004908     0.4695726906     -1.0266698574
H       -1.2033676056     1.1847162986     0.5305467898
H       -2.0107604776     -0.3738768202     0.4737251081
--------------------------------------------------------------

             Standard Nuclear Orientation (Angstroms)
    I     Atom           X                Y                Z
 ----------------------------------------------------------------
    1      C       1.2560915525     0.2470518912    -0.0236792138
    2      C      -0.0000034294    -0.5894041797     0.1891564460
    3      H       1.6116724088     0.4696376874    -1.0266540155
    4      H       2.0107642117    -0.3739401413     0.4736599209
    5      H       1.2034043996     1.1846664357     0.5306301582
    6      C      -1.2560906374     0.2470602696    -0.0236882058
    7      H      -0.0000082585    -1.3258656085     0.9976239066
    8      H      -0.0000017340    -1.1396178574    -0.7536060183
    9      H      -1.6117004908     0.4695726906    -1.0266698574
   10      H      -1.2033676056     1.1847162986     0.5305467898
   11      H      -2.0107604776    -0.3738768202     0.4737251081
 ----------------------------------------------------------------

    7    -119.0758782169      5.44E-06 Convergence criterion met
    5    -119.1196961237      9.33E-06 Convergence criterion met
 Total energy in the final basis set = -119.11969612

                    Orbital Energies (a.u.)
 --------------------------------------------------------------

 Alpha MOs
 -- Occupied --
-10.2749 -10.2632 -10.2632  -0.8842  -0.7778  -0.6769  -0.5473  -0.5210
 -0.4967  -0.4633  -0.4378  -0.3934  -0.3873

                    Cartesian Multipole Moments
 -----------------------------------------------------------------
    Charge (ESU x 10^10)
                -0.0000
    Dipole Moment (Debye)
         X       0.0000      Y      -0.2040      Z      -0.0672
       Tot       0.2148
    Quadrupole Moments (Debye-Ang)
        XX     -22.8093     XY       0.0000     YY     -21.6816
        XZ      -0.0000     YZ      -0.5539     ZZ     -21.1045

 Total job time:  37.15s(wall), 101.74s(cpu)
        *  Thank you very much for using Q-Chem.  Have a nice day.  *
