 Q-Chem 5.2 (devel), Q-Chem, Inc., Pleasanton, CA (2019)
 Q-Chem 5.2.2 for Intel X86 EM64T Linux

User input:
--------------------------------------------------------------
$rem
   JOBTYPE  sp
   EXCHANGE   omegaB97X-D
   BASIS   6-311+G(2df,2pd)
   max_scf_cycles   250
   geom_opt_max_cycles   1500
   basis2 6-31G*
   scf_algorithm rca_diis
   SYM_IGNORE  TRUE
   print_input   true
   geom_opt_dmax   80
   pop_mulliken false
   XC_GRID 000075000302
$end

$molecule
0 1
C       1.3390143346     0.0000000337     0.3109273514
C       -0.1079732720     -0.0000000196     -0.5835390211
H       1.3764041350     -0.8720354914     0.9706784020
H       1.3764041005     0.8720355606     0.9706784024
H       2.2558182142     0.0000000302     -0.2795025041
C       -1.2023314374     -0.0000001569     0.2017610006
H       -0.2371984053     -0.8701149198     -1.2315781822
H       -0.2371983179     0.8701148996     -1.2315781489
H       -1.2426446587     -0.8887221712     0.8308822170
H       -2.0776500926     0.0000008691     -0.4485665998
H       -1.2426446609     0.8887220319     0.8308821018
--------------------------------------------------------------

             Standard Nuclear Orientation (Angstroms)
    I     Atom           X                Y                Z
 ----------------------------------------------------------------
    1      C       1.3390143346     0.0000000337     0.3109273514
    2      C      -0.1079732720    -0.0000000196    -0.5835390211
    3      H       1.3764041350    -0.8720354914     0.9706784020
    4      H       1.3764041005     0.8720355606     0.9706784024
    5      H       2.2558182142     0.0000000302    -0.2795025041
    6      C      -1.2023314374    -0.0000001569     0.2017610006
    7      H      -0.2371984053    -0.8701149198    -1.2315781822
    8      H      -0.2371983179     0.8701148996    -1.2315781489
    9      H      -1.2426446587    -0.8887221712     0.8308822170
   10      H      -2.0776500926     0.0000008691    -0.4485665998
   11      H      -1.2426446609     0.8887220319     0.8308821018
 ----------------------------------------------------------------

    7    -119.0600416345      5.83E-06 Convergence criterion met
    6    -119.1047862842      4.95E-06 Convergence criterion met
 Total energy in the final basis set = -119.10478628

                    Orbital Energies (a.u.)
 --------------------------------------------------------------

 Alpha MOs
 -- Occupied --
-10.2770 -10.2724 -10.2514  -0.9036  -0.7751  -0.6711  -0.5578  -0.5340
 -0.4809  -0.4641  -0.4428  -0.3987  -0.3896

                    Cartesian Multipole Moments
 -----------------------------------------------------------------
    Charge (ESU x 10^10)
                -0.0000
    Dipole Moment (Debye)
         X      -0.1234      Y       0.0000      Z      -0.0797
       Tot       0.1469
    Quadrupole Moments (Debye-Ang)
        XX     -22.0219     XY      -0.0000     YY     -21.3615
        XZ       0.8275     YZ      -0.0000     ZZ     -21.8985

 Total job time:  36.11s(wall), 100.93s(cpu)
        *  Thank you very much for using Q-Chem.  Have a nice day.  *
