 Q-Chem 5.2 (devel), Q-Chem, Inc., Pleasanton, CA (2019)
 Q-Chem 5.2.2 for Intel X86 EM64T Linux

User input:
--------------------------------------------------------------
$rem
   JOBTYPE  sp
   EXCHANGE   omegaB97X-D
   BASIS   6-311+G(2df,2pd)
   max_scf_cycles   250
   geom_opt_max_cycles   1500
   basis2 6-31G*
   scf_algorithm rca_diis
   SYM_IGNORE  TRUE
   print_input   true
   geom_opt_dmax   80
   pop_mulliken false
   XC_GRID 000075000302
$end

$molecule
0 1
C       1.2467303387     0.0927704551     0.2595712116
C       -0.0000000067     0.1645195051     -0.6140624478
H       1.1044545195     -0.8943854933     0.7095597510
H       1.4289944735     0.8080491125     1.0610120494
H       2.1452735916     -0.0013751363     -0.3510668627
C       -1.2467303828     0.0927713045     0.2595710862
H       -0.0000005999     -0.9050389982     -0.8600860326
H       0.0000004634     0.7304004698     -1.5429586319
H       -1.1044536041     -0.8943845458     0.7095597160
H       -2.1452736124     -0.0013755910     -0.3510668495
H       -1.4289952415     0.8080495836     1.0610120291
--------------------------------------------------------------

             Standard Nuclear Orientation (Angstroms)
    I     Atom           X                Y                Z
 ----------------------------------------------------------------
    1      C       1.2467303387     0.0927704551     0.2595712116
    2      C      -0.0000000067     0.1645195051    -0.6140624478
    3      H       1.1044545195    -0.8943854933     0.7095597510
    4      H       1.4289944735     0.8080491125     1.0610120494
    5      H       2.1452735916    -0.0013751363    -0.3510668627
    6      C      -1.2467303828     0.0927713045     0.2595710862
    7      H      -0.0000005999    -0.9050389982    -0.8600860326
    8      H       0.0000004634     0.7304004698    -1.5429586319
    9      H      -1.1044536041    -0.8943845458     0.7095597160
   10      H      -2.1452736124    -0.0013755910    -0.3510668495
   11      H      -1.4289952415     0.8080495836     1.0610120291
 ----------------------------------------------------------------

    7    -119.0712028371      5.08E-06 Convergence criterion met
    6    -119.1153783125      3.75E-06 Convergence criterion met
 Total energy in the final basis set = -119.11537831

                    Orbital Energies (a.u.)
 --------------------------------------------------------------

 Alpha MOs
 -- Occupied --
-10.2762 -10.2669 -10.2669  -0.8919  -0.7775  -0.6757  -0.5595  -0.5208
 -0.4912  -0.4539  -0.4275  -0.4133  -0.3906

                    Cartesian Multipole Moments
 -----------------------------------------------------------------
    Charge (ESU x 10^10)
                -0.0000
    Dipole Moment (Debye)
         X       0.0000      Y      -0.2263      Z      -0.1157
       Tot       0.2542
    Quadrupole Moments (Debye-Ang)
        XX     -22.2643     XY       0.0000     YY     -21.6225
        XZ      -0.0000     YZ       0.0694     ZZ     -21.7296

 Total job time:  34.77s(wall), 97.22s(cpu)
        *  Thank you very much for using Q-Chem.  Have a nice day.  *
