 Q-Chem 5.2 (devel), Q-Chem, Inc., Pleasanton, CA (2019)
 Q-Chem 5.2.2 for Intel X86 EM64T Linux

User input:
--------------------------------------------------------------
$rem
   JOBTYPE  sp
   EXCHANGE   omegaB97X-D
   BASIS   6-311+G(2df,2pd)
   max_scf_cycles   250
   geom_opt_max_cycles   1500
   basis2 6-31G*
   scf_algorithm rca_diis
   SYM_IGNORE  TRUE
   print_input   true
   geom_opt_dmax   80
   pop_mulliken false
   XC_GRID 000075000302
$end

$molecule
0 1
C       1.2671731395     0.0544526795     0.2563634881
C       -0.0000004510     0.0538810620     -0.5903893785
H       1.4552601685     -0.8421562116     0.8584851141
H       1.1561495305     0.8935310071     0.9391340971
H       2.1492876823     -0.1752201193     -0.3421733138
C       -1.2671743566     0.0544533820     0.2563627432
H       -0.0000001845     -0.8312630502     -1.2287389810
H       0.0000002419     0.9161686674     -1.2634472481
H       -1.4552616401     -0.8421535916     0.8584873835
H       -2.1492866825     -0.1752213987     -0.3421760733
H       -1.1561475085     0.8935282393     0.9391371876
--------------------------------------------------------------

             Standard Nuclear Orientation (Angstroms)
    I     Atom           X                Y                Z
 ----------------------------------------------------------------
    1      C       1.2671731395     0.0544526795     0.2563634881
    2      C      -0.0000004510     0.0538810620    -0.5903893785
    3      H       1.4552601685    -0.8421562116     0.8584851141
    4      H       1.1561495305     0.8935310071     0.9391340971
    5      H       2.1492876823    -0.1752201193    -0.3421733138
    6      C      -1.2671743566     0.0544533820     0.2563627432
    7      H      -0.0000001845    -0.8312630502    -1.2287389810
    8      H       0.0000002419     0.9161686674    -1.2634472481
    9      H      -1.4552616401    -0.8421535916     0.8584873835
   10      H      -2.1492866825    -0.1752213987    -0.3421760733
   11      H      -1.1561475085     0.8935282393     0.9391371876
 ----------------------------------------------------------------

    7    -119.0701755931      6.69E-06 Convergence criterion met
    6    -119.1149124878      3.84E-06 Convergence criterion met
 Total energy in the final basis set = -119.11491249

                    Orbital Energies (a.u.)
 --------------------------------------------------------------

 Alpha MOs
 -- Occupied --
-10.2746 -10.2659 -10.2659  -0.8831  -0.7807  -0.6810  -0.5682  -0.5086
 -0.4937  -0.4732  -0.4172  -0.3984  -0.3929

                    Cartesian Multipole Moments
 -----------------------------------------------------------------
    Charge (ESU x 10^10)
                 0.0000
    Dipole Moment (Debye)
         X       0.0000      Y      -0.2996      Z      -0.0661
       Tot       0.3068
    Quadrupole Moments (Debye-Ang)
        XX     -22.1596     XY       0.0000     YY     -21.4173
        XZ       0.0000     YZ       0.4591     ZZ     -21.9948

 Total job time:  34.59s(wall), 96.44s(cpu)
        *  Thank you very much for using Q-Chem.  Have a nice day.  *
