 Q-Chem 5.3 (devel), Q-Chem, Inc., Pleasanton, CA (2020)
 Q-Chem 5.3.0 for Intel X86 EM64T Linux

User input:
--------------------------------------------------------------
$rem
   JOBTYPE  sp
   EXCHANGE   omegaB97X-D
   BASIS   6-311+G(2df,2pd)
   max_scf_cycles   250
   geom_opt_max_cycles   1500
   basis2 6-31G*
   scf_algorithm rca_diis
   SYM_IGNORE  TRUE
   print_input   true
   geom_opt_dmax   80
   pop_mulliken false
   XC_GRID 000075000302
$end

$molecule
0 1
C       0.9327538880     0.8576466361     0.2507641885
C       0.0000070310     -0.0000189579     -0.5960639574
H       1.9928708440     0.7473758916     -0.0105378010
H       0.8178975942     0.5572097517     1.2883919346
H       0.6729063562     1.9148580186     0.1882655049
C       -0.9327614583     -0.8576317128     0.2507934342
H       0.4545153857     -0.7494663065     -1.2483747392
H       -0.4544824412     0.7493870300     -1.2484338192
H       -0.8178095074     -0.5572357697     1.2884237948
H       -0.6730104618     -1.9148642814     0.1882536518
H       -1.9928872911     -0.7472596336     -0.0104371733
$end
--------------------------------------------------------------

             Standard Nuclear Orientation (Angstroms)
    I     Atom           X                Y                Z
 ----------------------------------------------------------------
    1      C       0.9327538880     0.8576466361     0.2507641885
    2      C       0.0000070310    -0.0000189579    -0.5960639574
    3      H       1.9928708440     0.7473758916    -0.0105378010
    4      H       0.8178975942     0.5572097517     1.2883919346
    5      H       0.6729063562     1.9148580186     0.1882655049
    6      C      -0.9327614583    -0.8576317128     0.2507934342
    7      H       0.4545153857    -0.7494663065    -1.2483747392
    8      H      -0.4544824412     0.7493870300    -1.2484338192
    9      H      -0.8178095074    -0.5572357697     1.2884237948
   10      H      -0.6730104618    -1.9148642814     0.1882536518
   11      H      -1.9928872911    -0.7472596336    -0.0104371733
 ----------------------------------------------------------------

    7    -119.0846414970      4.32E-06 Convergence criterion met
    6    -119.1283722263      4.14E-06 Convergence criterion met
 Total energy in the final basis set = -119.12837223

                    Orbital Energies (a.u.)
 --------------------------------------------------------------

 Alpha MOs
 -- Occupied --
-10.2715 -10.2643 -10.2643  -0.8829  -0.7767  -0.6787  -0.5455  -0.5320
 -0.4727  -0.4718  -0.4208  -0.4171  -0.3915

                    Cartesian Multipole Moments
 -----------------------------------------------------------------
    Charge (ESU x 10^10)
                 0.0000
    Dipole Moment (Debye)
         X       0.0000      Y      -0.0000      Z      -0.0591
       Tot       0.0591
    Quadrupole Moments (Debye-Ang)
        XX     -22.1073     XY      -0.4547     YY     -21.3043
        XZ       0.0000     YZ      -0.0000     ZZ     -22.0664

 Total job time:  26.10s(wall), 71.40s(cpu)
        *  Thank you very much for using Q-Chem.  Have a nice day.  *
