 Q-Chem 5.2 (devel), Q-Chem, Inc., Pleasanton, CA (2019)
 Q-Chem 5.2.2 for Intel X86 EM64T Linux

User input:
--------------------------------------------------------------
$rem
   JOBTYPE  sp
   EXCHANGE   omegaB97X-D
   BASIS   6-311+G(2df,2pd)
   max_scf_cycles   250
   geom_opt_max_cycles   1500
   basis2 6-31G*
   scf_algorithm rca_diis
   SYM_IGNORE  TRUE
   print_input   true
   geom_opt_dmax   80
   pop_mulliken false
   XC_GRID 000075000302
$end

$molecule
0 1
C       1.2649814127     -0.1420677551     0.1908518673
C       -0.0000008000     0.4605602453     -0.4086325124
H       1.0626793074     -0.2980606082     1.2545510354
H       2.1575463375     0.4782788660     0.1123336286
H       1.4910029125     -1.1151587817     -0.2463521235
C       -1.2649806054     -0.1420743552     0.1908509311
H       0.0000002565     0.1399531170     -1.4526583193
H       -0.0000038488     1.5535385923     -0.4204213965
H       -1.0626690063     -0.2981060899     1.2545422130
H       -1.4910173485     -1.1151481764     -0.2463839065
H       -2.1575386782     0.4782856120     0.1123636017
--------------------------------------------------------------

             Standard Nuclear Orientation (Angstroms)
    I     Atom           X                Y                Z
 ----------------------------------------------------------------
    1      C       1.2649814127    -0.1420677551     0.1908518673
    2      C      -0.0000008000     0.4605602453    -0.4086325124
    3      H       1.0626793074    -0.2980606082     1.2545510354
    4      H       2.1575463375     0.4782788660     0.1123336286
    5      H       1.4910029125    -1.1151587817    -0.2463521235
    6      C      -1.2649806054    -0.1420743552     0.1908509311
    7      H       0.0000002565     0.1399531170    -1.4526583193
    8      H      -0.0000038488     1.5535385923    -0.4204213965
    9      H      -1.0626690063    -0.2981060899     1.2545422130
   10      H      -1.4910173485    -1.1151481764    -0.2463839065
   11      H      -2.1575386782     0.4782856120     0.1123636017
 ----------------------------------------------------------------

    7    -119.0944741106      4.38E-06 Convergence criterion met
    6    -119.1378175441      4.11E-06 Convergence criterion met
 Total energy in the final basis set = -119.13781754

                    Orbital Energies (a.u.)
 --------------------------------------------------------------

 Alpha MOs
 -- Occupied --
-10.2731 -10.2653 -10.2653  -0.8829  -0.7763  -0.6784  -0.5471  -0.5310
 -0.4756  -0.4623  -0.4255  -0.4172  -0.3994

                    Cartesian Multipole Moments
 -----------------------------------------------------------------
    Charge (ESU x 10^10)
                -0.0000
    Dipole Moment (Debye)
         X      -0.0000      Y       0.0240      Z      -0.0946
       Tot       0.0976
    Quadrupole Moments (Debye-Ang)
        XX     -21.9639     XY      -0.0000     YY     -21.4485
        XZ      -0.0000     YZ       0.3989     ZZ     -21.9836

 Total job time:  36.21s(wall), 101.29s(cpu)
        *  Thank you very much for using Q-Chem.  Have a nice day.  *
