 Q-Chem 5.3 (devel), Q-Chem, Inc., Pleasanton, CA (2020)
 Q-Chem 5.3.0 for Intel X86 EM64T Linux

User input:
--------------------------------------------------------------
$rem
   JOBTYPE  sp
   EXCHANGE   omegaB97X-D
   BASIS   6-311+G(2df,2pd)
   max_scf_cycles   250
   geom_opt_max_cycles   1500
   basis2 6-31G*
   scf_algorithm rca_diis
   SYM_IGNORE  TRUE
   print_input   true
   geom_opt_dmax   80
   pop_mulliken false
   XC_GRID 000075000302
$end

$molecule
0 1
C       1.2630974557     -0.1867148322     0.1353192311
C       -0.0000015190     0.5658156115     -0.2659254433
H       1.3292419684     -0.0707449580     1.2218420345
H       2.2008969267     0.1643145284     -0.2928413008
H       1.1751917786     -1.2534727762     -0.0730607861
C       -1.2630970847     -0.1867224804     0.1353168784
H       -0.0000005462     0.4965076213     -1.3557032503
H       -0.0000052027     1.6309582777     -0.0198247663
H       -1.3292194015     -0.0708044545     1.2218460674
H       -1.1752028243     -1.2534713987     -0.0731154029
H       -2.2009016116     0.1643355271     -0.2928082427
$end
--------------------------------------------------------------

             Standard Nuclear Orientation (Angstroms)
    I     Atom           X                Y                Z
 ----------------------------------------------------------------
    1      C       1.2630974557    -0.1867148322     0.1353192311
    2      C      -0.0000015190     0.5658156115    -0.2659254433
    3      H       1.3292419684    -0.0707449580     1.2218420345
    4      H       2.2008969267     0.1643145284    -0.2928413008
    5      H       1.1751917786    -1.2534727762    -0.0730607861
    6      C      -1.2630970847    -0.1867224804     0.1353168784
    7      H      -0.0000005462     0.4965076213    -1.3557032503
    8      H      -0.0000052027     1.6309582777    -0.0198247663
    9      H      -1.3292194015    -0.0708044545     1.2218460674
   10      H      -1.1752028243    -1.2534713987    -0.0731154029
   11      H      -2.2009016116     0.1643355271    -0.2928082427
 ----------------------------------------------------------------

    7    -119.0943441883      4.74E-06 Convergence criterion met
    6    -119.1375881547      4.15E-06 Convergence criterion met
 Total energy in the final basis set = -119.13758815

                    Orbital Energies (a.u.)
 --------------------------------------------------------------

 Alpha MOs
 -- Occupied --
-10.2741 -10.2662 -10.2662  -0.8835  -0.7767  -0.6783  -0.5482  -0.5290
 -0.4764  -0.4635  -0.4277  -0.4259  -0.3890

                    Cartesian Multipole Moments
 -----------------------------------------------------------------
    Charge (ESU x 10^10)
                 0.0000
    Dipole Moment (Debye)
         X      -0.0000      Y       0.0323      Z      -0.0769
       Tot       0.0834
    Quadrupole Moments (Debye-Ang)
        XX     -21.9344     XY      -0.0000     YY     -21.4586
        XZ      -0.0000     YZ       0.4695     ZZ     -22.0188

 Total job time:  26.81s(wall), 73.11s(cpu)
        *  Thank you very much for using Q-Chem.  Have a nice day.  *
