 Q-Chem 5.3 (devel), Q-Chem, Inc., Pleasanton, CA (2020)
 Q-Chem 5.3.0 for Intel X86 EM64T Linux

User input:
--------------------------------------------------------------
$rem
   JOBTYPE  sp
   EXCHANGE   omegaB97X-D
   BASIS   6-311+G(2df,2pd)
   max_scf_cycles   250
   geom_opt_max_cycles   1500
   basis2 6-31G*
   scf_algorithm rca_diis
   SYM_IGNORE  TRUE
   print_input   true
   geom_opt_dmax   80
   pop_mulliken false
   XC_GRID 000075000302
$end

$molecule
0 1
C       1.2899374630     0.0000000481     0.3101369394
C       0.0000005334     0.0000000923     -0.5553494000
H       1.2017191776     -0.9187976340     0.8883370962
H       1.2017192792     0.9187977163     0.8883371452
H       2.0933628762     0.0000000715     -0.4231830471
C       -1.2899361795     -0.0000000226     0.3101365118
H       0.0000003113     -0.8723292665     -1.2154314526
H       0.0000006090     0.8723293417     -1.2154316176
H       -1.2017206381     -0.9187977018     0.8883371456
H       -2.0933635310     0.0000004009     -0.4231815449
H       -1.2017199618     0.9187976202     0.8883372429
$end
--------------------------------------------------------------

             Standard Nuclear Orientation (Angstroms)
    I     Atom           X                Y                Z
 ----------------------------------------------------------------
    1      C       1.2899374630     0.0000000481     0.3101369394
    2      C       0.0000005334     0.0000000923    -0.5553494000
    3      H       1.2017191776    -0.9187976340     0.8883370962
    4      H       1.2017192792     0.9187977163     0.8883371452
    5      H       2.0933628762     0.0000000715    -0.4231830471
    6      C      -1.2899361795    -0.0000000226     0.3101365118
    7      H       0.0000003113    -0.8723292665    -1.2154314526
    8      H       0.0000006090     0.8723293417    -1.2154316176
    9      H      -1.2017206381    -0.9187977018     0.8883371456
   10      H      -2.0933635310     0.0000004009    -0.4231815449
   11      H      -1.2017199618     0.9187976202     0.8883372429
 ----------------------------------------------------------------

    7    -119.0884646872      5.26E-06 Convergence criterion met
    6    -119.1318540173      4.30E-06 Convergence criterion met
 Total energy in the final basis set = -119.13185402

                    Orbital Energies (a.u.)
 --------------------------------------------------------------

 Alpha MOs
 -- Occupied --
-10.2715 -10.2672 -10.2672  -0.8803  -0.7759  -0.6672  -0.5539  -0.5262
 -0.4842  -0.4759  -0.4116  -0.4096  -0.4008

                    Cartesian Multipole Moments
 -----------------------------------------------------------------
    Charge (ESU x 10^10)
                -0.0000
    Dipole Moment (Debye)
         X      -0.0000      Y      -0.0000      Z      -0.2250
       Tot       0.2250
    Quadrupole Moments (Debye-Ang)
        XX     -23.2274     XY       0.0000     YY     -21.0192
        XZ      -0.0000     YZ      -0.0000     ZZ     -22.0866

 Total job time:  28.62s(wall), 76.91s(cpu)
        *  Thank you very much for using Q-Chem.  Have a nice day.  *
