 Q-Chem 5.3 (devel), Q-Chem, Inc., Pleasanton, CA (2020)
 Q-Chem 5.3.0 for Intel X86 EM64T Linux

User input:
--------------------------------------------------------------
$rem
   JOBTYPE  sp
   EXCHANGE   omegaB97X-D
   BASIS   6-311+G(2df,2pd)
   max_scf_cycles   250
   geom_opt_max_cycles   1500
   basis2 6-31G*
   scf_algorithm rca_diis
   SYM_IGNORE  TRUE
   print_input   true
   geom_opt_dmax   80
   pop_mulliken false
   XC_GRID 000075000302
$end

$molecule
0 1
C       1.2662963943     0.0479344961     0.2599303283
C       -0.0000000662     0.0000010100     -0.5867788183
H       1.3304051878     -0.9705918029     0.9916373930
H       1.2838644798     0.7919125586     0.8143227446
H       2.1638049625     0.0532012453     -0.3594017797
C       -1.2662965962     -0.0479330068     0.2599302937
H       0.0185607335     -0.8736952716     -1.2425781034
H       -0.0185608287     0.8736933877     -1.2425754329
H       -1.2838645903     -0.7919130105     0.8143237609
H       -2.1638043590     -0.0531994236     -0.3594012658
H       -1.3304053782     0.9705904838     0.9916358986
$end
--------------------------------------------------------------

             Standard Nuclear Orientation (Angstroms)
    I     Atom           X                Y                Z
 ----------------------------------------------------------------
    1      C       1.2662963943     0.0479344961     0.2599303283
    2      C      -0.0000000662     0.0000010100    -0.5867788183
    3      H       1.3304051878    -0.9705918029     0.9916373930
    4      H       1.2838644798     0.7919125586     0.8143227446
    5      H       2.1638049625     0.0532012453    -0.3594017797
    6      C      -1.2662965962    -0.0479330068     0.2599302937
    7      H       0.0185607335    -0.8736952716    -1.2425781034
    8      H      -0.0185608287     0.8736933877    -1.2425754329
    9      H      -1.2838645903    -0.7919130105     0.8143237609
   10      H      -2.1638043590    -0.0531994236    -0.3594012658
   11      H      -1.3304053782     0.9705904838     0.9916358986
 ----------------------------------------------------------------

    7    -119.0319552149      5.96E-06 Convergence criterion met
    5    -119.0778427869      9.00E-06 Convergence criterion met
 Total energy in the final basis set = -119.07784279

                    Orbital Energies (a.u.)
 --------------------------------------------------------------

 Alpha MOs
 -- Occupied --
-10.2759 -10.2635 -10.2635  -0.8856  -0.7868  -0.6862  -0.5507  -0.5262
 -0.4858  -0.4688  -0.4204  -0.4123  -0.4026

                    Cartesian Multipole Moments
 -----------------------------------------------------------------
    Charge (ESU x 10^10)
                -0.0000
    Dipole Moment (Debye)
         X      -0.0000      Y       0.0000      Z      -0.1869
       Tot       0.1869
    Quadrupole Moments (Debye-Ang)
        XX     -22.1722     XY       0.6048     YY     -21.3578
        XZ      -0.0000     YZ      -0.0000     ZZ     -21.9135

 Total job time:  24.63s(wall), 66.19s(cpu)
        *  Thank you very much for using Q-Chem.  Have a nice day.  *
