 Q-Chem 5.2 (devel), Q-Chem, Inc., Pleasanton, CA (2019)
 Q-Chem 5.2.2 for Intel X86 EM64T Linux

User input:
--------------------------------------------------------------
$rem
   JOBTYPE  sp
   EXCHANGE   omegaB97X-D
   BASIS   6-311+G(2df,2pd)
   max_scf_cycles   250
   geom_opt_max_cycles   1500
   basis2 6-31G*
   scf_algorithm rca_diis
   SYM_IGNORE  TRUE
   print_input   true
   geom_opt_dmax   80
   pop_mulliken false
   XC_GRID 000075000302
$end

$molecule
0 1
C       1.2569178103     -0.2447833160     -0.0090201563
C       -0.0000029457     0.6038521276     0.1416197493
H       1.9803536001     0.3285542137     0.5826036403
H       1.6886276677     -0.4168598760     -0.9920593254
H       1.1412723496     -1.2115548184     0.4820329044
C       -1.2569190106     -0.2447897871     -0.0090282173
H       -0.0000015516     1.0978062688     -0.8318449555
H       -0.0000076978     1.3876831227     0.9041902302
H       -1.9803447798     0.3284881025     0.5826641688
H       -1.1412347345     -1.2115944721     0.4819512095
H       -1.6886607683     -0.4168008996     -0.9920642291
--------------------------------------------------------------

             Standard Nuclear Orientation (Angstroms)
    I     Atom           X                Y                Z
 ----------------------------------------------------------------
    1      C       1.2569178103    -0.2447833160    -0.0090201563
    2      C      -0.0000029457     0.6038521276     0.1416197493
    3      H       1.9803536001     0.3285542137     0.5826036403
    4      H       1.6886276677    -0.4168598760    -0.9920593254
    5      H       1.1412723496    -1.2115548184     0.4820329044
    6      C      -1.2569190106    -0.2447897871    -0.0090282173
    7      H      -0.0000015516     1.0978062688    -0.8318449555
    8      H      -0.0000076978     1.3876831227     0.9041902302
    9      H      -1.9803447798     0.3284881025     0.5826641688
   10      H      -1.1412347345    -1.2115944721     0.4819512095
   11      H      -1.6886607683    -0.4168008996    -0.9920642291
 ----------------------------------------------------------------

    7    -119.0751048036      5.14E-06 Convergence criterion met
    5    -119.1190061560      9.47E-06 Convergence criterion met
 Total energy in the final basis set = -119.11900616

                    Orbital Energies (a.u.)
 --------------------------------------------------------------

 Alpha MOs
 -- Occupied --
-10.2740 -10.2631 -10.2631  -0.8840  -0.7774  -0.6771  -0.5472  -0.5234
 -0.4945  -0.4629  -0.4360  -0.3960  -0.3861

                    Cartesian Multipole Moments
 -----------------------------------------------------------------
    Charge (ESU x 10^10)
                -0.0000
    Dipole Moment (Debye)
         X       0.0000      Y       0.1884      Z      -0.0683
       Tot       0.2004
    Quadrupole Moments (Debye-Ang)
        XX     -22.7433     XY      -0.0000     YY     -21.6758
        XZ      -0.0000     YZ       0.5390     ZZ     -21.1684

 Total job time:  37.76s(wall), 103.87s(cpu)
        *  Thank you very much for using Q-Chem.  Have a nice day.  *
