 Q-Chem 5.3 (devel), Q-Chem, Inc., Pleasanton, CA (2020)
 Q-Chem 5.3.0 for Intel X86 EM64T Linux

User input:
--------------------------------------------------------------
$rem
   JOBTYPE  sp
   EXCHANGE   omegaB97X-D
   BASIS   6-311+G(2df,2pd)
   max_scf_cycles   250
   geom_opt_max_cycles   1500
   basis2 6-31G*
   scf_algorithm rca_diis
   SYM_IGNORE  TRUE
   print_input   true
   geom_opt_dmax   80
   pop_mulliken false
   XC_GRID 000075000302
$end

$molecule
0 1
C       1.2251307586     0.3237743387     0.2659196582
C       0.0000011070     -0.0000071786     -0.5808064316
H       0.9791349326     0.9810087675     1.1049499146
H       1.9724112439     0.8334170592     -0.3421524432
H       1.6855418306     -0.5790875924     0.6683926210
C       -1.2251308934     -0.3237683638     0.2659238792
H       0.1635469970     -0.8587812073     -1.2361820868
H       -0.1635423715     0.8587504915     -1.2362035643
H       -1.9724314903     -0.8333756541     -0.3421540012
H       -1.6855139203     0.5790981630     0.6684185151
H       -0.9791482550     -0.9810281578     1.1049389579
$end
--------------------------------------------------------------

             Standard Nuclear Orientation (Angstroms)
    I     Atom           X                Y                Z
 ----------------------------------------------------------------
    1      C       1.2251307586     0.3237743387     0.2659196582
    2      C       0.0000011070    -0.0000071786    -0.5808064316
    3      H       0.9791349326     0.9810087675     1.1049499146
    4      H       1.9724112439     0.8334170592    -0.3421524432
    5      H       1.6855418306    -0.5790875924     0.6683926210
    6      C      -1.2251308934    -0.3237683638     0.2659238792
    7      H       0.1635469970    -0.8587812073    -1.2361820868
    8      H      -0.1635423715     0.8587504915    -1.2362035643
    9      H      -1.9724314903    -0.8333756541    -0.3421540012
   10      H      -1.6855139203     0.5790981630     0.6684185151
   11      H      -0.9791482550    -0.9810281578     1.1049389579
 ----------------------------------------------------------------

    7    -119.0999532251      4.57E-06 Convergence criterion met
    6    -119.1429704661      3.82E-06 Convergence criterion met
 Total energy in the final basis set = -119.14297047

                    Orbital Energies (a.u.)
 --------------------------------------------------------------

 Alpha MOs
 -- Occupied --
-10.2735 -10.2646 -10.2646  -0.8809  -0.7774  -0.6772  -0.5454  -0.5230
 -0.4838  -0.4664  -0.4192  -0.4150  -0.4043

                    Cartesian Multipole Moments
 -----------------------------------------------------------------
    Charge (ESU x 10^10)
                 0.0000
    Dipole Moment (Debye)
         X      -0.0000      Y      -0.0000      Z      -0.0943
       Tot       0.0943
    Quadrupole Moments (Debye-Ang)
        XX     -22.3100     XY      -0.1087     YY     -21.2954
        XZ      -0.0000     YZ      -0.0000     ZZ     -21.7859

 Total job time:  28.99s(wall), 77.39s(cpu)
        *  Thank you very much for using Q-Chem.  Have a nice day.  *
