 Q-Chem 5.3 (devel), Q-Chem, Inc., Pleasanton, CA (2020)
 Q-Chem 5.3.0 for Intel X86 EM64T Linux

User input:
--------------------------------------------------------------
$rem
   JOBTYPE  sp
   EXCHANGE   omegaB97X-D
   BASIS   6-311+G(2df,2pd)
   max_scf_cycles   250
   geom_opt_max_cycles   1500
   basis2 6-31G*
   scf_algorithm rca_diis
   SYM_IGNORE  TRUE
   print_input   true
   geom_opt_dmax   80
   pop_mulliken false
   XC_GRID 000075000302
$end

$molecule
0 1
C       0.8572123105     0.9331362324     0.2528364552
C       0.0000086746     -0.0000202711     -0.5940084133
H       1.8657501064     0.5508479844     0.4588034035
H       0.3565856081     1.0679430523     1.2067295662
H       0.9505223089     1.9182212646     -0.2054467507
C       -0.8572216702     -0.9331184742     0.2528731674
H       0.4998300986     -0.7208225603     -1.2454539974
H       -0.4997896768     0.7207366301     -1.2455201328
H       -0.3565300838     -1.0679992448     1.2067234156
H       -0.9506594114     -1.9181857931     -0.2054218129
H       -1.8657083254     -0.5507381542     0.4589301181
$end
--------------------------------------------------------------

             Standard Nuclear Orientation (Angstroms)
    I     Atom           X                Y                Z
 ----------------------------------------------------------------
    1      C       0.8572123105     0.9331362324     0.2528364552
    2      C       0.0000086746    -0.0000202711    -0.5940084133
    3      H       1.8657501064     0.5508479844     0.4588034035
    4      H       0.3565856081     1.0679430523     1.2067295662
    5      H       0.9505223089     1.9182212646    -0.2054467507
    6      C      -0.8572216702    -0.9331184742     0.2528731674
    7      H       0.4998300986    -0.7208225603    -1.2454539974
    8      H      -0.4997896768     0.7207366301    -1.2455201328
    9      H      -0.3565300838    -1.0679992448     1.2067234156
   10      H      -0.9506594114    -1.9181857931    -0.2054218129
   11      H      -1.8657083254    -0.5507381542     0.4589301181
 ----------------------------------------------------------------

    7    -119.0872331865      4.58E-06 Convergence criterion met
    6    -119.1308212727      4.13E-06 Convergence criterion met
 Total energy in the final basis set = -119.13082127

                    Orbital Energies (a.u.)
 --------------------------------------------------------------

 Alpha MOs
 -- Occupied --
-10.2722 -10.2651 -10.2651  -0.8829  -0.7777  -0.6781  -0.5462  -0.5300
 -0.4776  -0.4693  -0.4229  -0.4146  -0.3934

                    Cartesian Multipole Moments
 -----------------------------------------------------------------
    Charge (ESU x 10^10)
                -0.0000
    Dipole Moment (Debye)
         X       0.0000      Y      -0.0000      Z      -0.0432
       Tot       0.0432
    Quadrupole Moments (Debye-Ang)
        XX     -22.1173     XY      -0.4519     YY     -21.3815
        XZ      -0.0000     YZ      -0.0000     ZZ     -21.9848

 Total job time:  26.09s(wall), 71.87s(cpu)
        *  Thank you very much for using Q-Chem.  Have a nice day.  *
