 Q-Chem 5.2 (devel), Q-Chem, Inc., Pleasanton, CA (2019)
 Q-Chem 5.2.2 for Intel X86 EM64T Linux

User input:
--------------------------------------------------------------
$rem
   JOBTYPE  sp
   EXCHANGE   omegaB97X-D
   BASIS   6-311+G(2df,2pd)
   max_scf_cycles   250
   geom_opt_max_cycles   1500
   basis2 6-31G*
   scf_algorithm rca_diis
   SYM_IGNORE  TRUE
   print_input   true
   geom_opt_dmax   80
   pop_mulliken false
   XC_GRID 000075000302
$end

$molecule
0 1
C       1.0191751799     0.7529381734     0.2539475798
C       0.0000053878     -0.0000170709     -0.5928557905
H       1.8534590339     1.1592176827     -0.3303629395
H       1.4355843851     0.0648285268     0.9853932529
H       0.5565273978     1.5729801625     0.8040577630
C       -1.0191800837     -0.7529263870     0.2539691702
H       0.3942805382     -0.7820378917     -1.2461160132
H       -0.3942558358     0.7819675650     -1.2461663768
H       -1.4355006187     -0.0648072910     0.9854580636
H       -0.5565714759     -1.5730193685     0.8040361069
H       -1.8535239692     -1.1591234351     -0.3303157974
--------------------------------------------------------------

             Standard Nuclear Orientation (Angstroms)
    I     Atom           X                Y                Z
 ----------------------------------------------------------------
    1      C       1.0191751799     0.7529381734     0.2539475798
    2      C       0.0000053878    -0.0000170709    -0.5928557905
    3      H       1.8534590339     1.1592176827    -0.3303629395
    4      H       1.4355843851     0.0648285268     0.9853932529
    5      H       0.5565273978     1.5729801625     0.8040577630
    6      C      -1.0191800837    -0.7529263870     0.2539691702
    7      H       0.3942805382    -0.7820378917    -1.2461160132
    8      H      -0.3942558358     0.7819675650    -1.2461663768
    9      H      -1.4355006187    -0.0648072910     0.9854580636
   10      H      -0.5565714759    -1.5730193685     0.8040361069
   11      H      -1.8535239692    -1.1591234351    -0.3303157974
 ----------------------------------------------------------------

    7    -119.0972556544      4.62E-06 Convergence criterion met
    6    -119.1403552701      4.02E-06 Convergence criterion met
 Total energy in the final basis set = -119.14035527

                    Orbital Energies (a.u.)
 --------------------------------------------------------------

 Alpha MOs
 -- Occupied --
-10.2738 -10.2659 -10.2659  -0.8823  -0.7776  -0.6781  -0.5472  -0.5256
 -0.4818  -0.4654  -0.4279  -0.4142  -0.3977

                    Cartesian Multipole Moments
 -----------------------------------------------------------------
    Charge (ESU x 10^10)
                 0.0000
    Dipole Moment (Debye)
         X       0.0000      Y      -0.0000      Z      -0.0590
       Tot       0.0590
    Quadrupole Moments (Debye-Ang)
        XX     -22.1432     XY      -0.1714     YY     -21.2611
        XZ       0.0000     YZ      -0.0000     ZZ     -21.9892

 Total job time:  40.74s(wall), 113.23s(cpu)
        *  Thank you very much for using Q-Chem.  Have a nice day.  *
