 Q-Chem 5.3 (devel), Q-Chem, Inc., Pleasanton, CA (2020)
 Q-Chem 5.3.0 for Intel X86 EM64T Linux

User input:
--------------------------------------------------------------
$rem
   JOBTYPE  sp
   EXCHANGE   omegaB97X-D
   BASIS   6-311+G(2df,2pd)
   max_scf_cycles   250
   geom_opt_max_cycles   1500
   basis2 6-31G*
   scf_algorithm rca_diis
   SYM_IGNORE  TRUE
   print_input   true
   geom_opt_dmax   80
   pop_mulliken false
   XC_GRID 000075000302
$end

$molecule
0 1
C       1.2543097179     -0.2492946957     -0.0509077363
C       -0.0000029874     0.5496515881     0.2824103613
H       2.0296113713     0.4666482603     0.2484998608
H       1.4679332863     -0.5733087682     -1.0660287697
H       1.3550893266     -1.1137626517     0.6061010815
C       -1.2543104542     -0.2492996804     -0.0509182323
H       -0.0000011691     1.2057040846     -0.5899112466
H       -0.0000082837     1.1841312482     1.1732530767
H       -2.0296250268     0.4665914633     0.2485765686
H       -1.3550347458     -1.1138227101     0.6060273128
H       -1.4679610956     -0.5732374724     -1.0660572579
$end
--------------------------------------------------------------

             Standard Nuclear Orientation (Angstroms)
    I     Atom           X                Y                Z
 ----------------------------------------------------------------
    1      C       1.2543097179    -0.2492946957    -0.0509077363
    2      C      -0.0000029874     0.5496515881     0.2824103613
    3      H       2.0296113713     0.4666482603     0.2484998608
    4      H       1.4679332863    -0.5733087682    -1.0660287697
    5      H       1.3550893266    -1.1137626517     0.6061010815
    6      C      -1.2543104542    -0.2492996804    -0.0509182323
    7      H      -0.0000011691     1.2057040846    -0.5899112466
    8      H      -0.0000082837     1.1841312482     1.1732530767
    9      H      -2.0296250268     0.4665914633     0.2485765686
   10      H      -1.3550347458    -1.1138227101     0.6060273128
   11      H      -1.4679610956    -0.5732374724    -1.0660572579
 ----------------------------------------------------------------

    7    -119.0757052861      6.12E-06 Convergence criterion met
    5    -119.1194317918      9.15E-06 Convergence criterion met
 Total energy in the final basis set = -119.11943179

                    Orbital Energies (a.u.)
 --------------------------------------------------------------

 Alpha MOs
 -- Occupied --
-10.2761 -10.2632 -10.2632  -0.8847  -0.7784  -0.6766  -0.5473  -0.5164
 -0.5000  -0.4644  -0.4436  -0.3884  -0.3873

                    Cartesian Multipole Moments
 -----------------------------------------------------------------
    Charge (ESU x 10^10)
                -0.0000
    Dipole Moment (Debye)
         X       0.0000      Y       0.2166      Z      -0.0559
       Tot       0.2237
    Quadrupole Moments (Debye-Ang)
        XX     -22.9923     XY      -0.0000     YY     -21.6747
        XZ      -0.0000     YZ       0.5912     ZZ     -20.9658

 Total job time:  26.38s(wall), 69.85s(cpu)
        *  Thank you very much for using Q-Chem.  Have a nice day.  *
