 Q-Chem 5.2 (devel), Q-Chem, Inc., Pleasanton, CA (2019)
 Q-Chem 5.2.2 for Intel X86 EM64T Linux

User input:
--------------------------------------------------------------
$rem
   JOBTYPE  sp
   EXCHANGE   omegaB97X-D
   BASIS   6-311+G(2df,2pd)
   max_scf_cycles   250
   geom_opt_max_cycles   1500
   basis2 6-31G*
   scf_algorithm rca_diis
   SYM_IGNORE  TRUE
   print_input   true
   geom_opt_dmax   80
   pop_mulliken false
   XC_GRID 000075000302
$end

$molecule
0 1
C       1.2651160983     -0.0000000018     0.2459577100
C       -0.0000002084     0.0000000127     -0.6240712647
H       1.3040623946     -0.8740660394     0.8840653054
H       1.3040623563     0.8740660728     0.8840654017
H       2.1884574517     0.0000000267     -0.3944277452
C       -1.2651166312     -0.0000001848     0.2459579628
H       -0.0000002251     -0.6982469925     -1.1371022824
H       -0.0000003207     0.6982466511     -1.1371019877
H       -1.3040625852     -0.8740635770     0.8840635999
H       -2.1884557224     0.0000005735     -0.3944259720
H       -1.3040626685     0.8740641248     0.8840642912
--------------------------------------------------------------

             Standard Nuclear Orientation (Angstroms)
    I     Atom           X                Y                Z
 ----------------------------------------------------------------
    1      C       1.2651160983    -0.0000000018     0.2459577100
    2      C      -0.0000002084     0.0000000127    -0.6240712647
    3      H       1.3040623946    -0.8740660394     0.8840653054
    4      H       1.3040623563     0.8740660728     0.8840654017
    5      H       2.1884574517     0.0000000267    -0.3944277452
    6      C      -1.2651166312    -0.0000001848     0.2459579628
    7      H      -0.0000002251    -0.6982469925    -1.1371022824
    8      H      -0.0000003207     0.6982466511    -1.1371019877
    9      H      -1.3040625852    -0.8740635770     0.8840635999
   10      H      -2.1884557224     0.0000005735    -0.3944259720
   11      H      -1.3040626685     0.8740641248     0.8840642912
 ----------------------------------------------------------------

    7    -118.9979006341      7.41E-06 Convergence criterion met
    5    -119.0472326682      7.64E-06 Convergence criterion met
 Total energy in the final basis set = -119.04723267

                    Orbital Energies (a.u.)
 --------------------------------------------------------------

 Alpha MOs
 -- Occupied --
-10.2647 -10.2647 -10.2219  -0.8983  -0.7718  -0.7143  -0.5728  -0.5169
 -0.4804  -0.4637  -0.4330  -0.4275  -0.4084

                    Cartesian Multipole Moments
 -----------------------------------------------------------------
    Charge (ESU x 10^10)
                 0.0000
    Dipole Moment (Debye)
         X      -0.0000      Y      -0.0000      Z      -0.2603
       Tot       0.2603
    Quadrupole Moments (Debye-Ang)
        XX     -22.2428     XY      -0.0000     YY     -21.0688
        XZ      -0.0000     YZ      -0.0000     ZZ     -21.1291

 Total job time:  31.14s(wall), 86.63s(cpu)
        *  Thank you very much for using Q-Chem.  Have a nice day.  *
