 Q-Chem 5.3 (devel), Q-Chem, Inc., Pleasanton, CA (2020)
 Q-Chem 5.3.0 for Intel X86 EM64T Linux

User input:
--------------------------------------------------------------
$rem
   JOBTYPE  sp
   EXCHANGE   omegaB97X-D
   BASIS   6-311+G(2df,2pd)
   max_scf_cycles   250
   geom_opt_max_cycles   1500
   basis2 6-31G*
   scf_algorithm rca_diis
   SYM_IGNORE  TRUE
   print_input   true
   geom_opt_dmax   80
   pop_mulliken false
   XC_GRID 000075000302
$end

$molecule
0 1
C       1.2319615866     0.2967340950     0.2653604749
C       0.0000009357     -0.0000065384     -0.5813626410
H       0.9747054528     0.8319433896     1.1837597290
H       1.9275721289     0.9216315962     -0.2949066823
H       1.7578986252     -0.6170400989     0.5438015842
C       -1.2319616874     -0.2967284952     0.2653640082
H       0.1496350687     -0.8612598902     -1.2368087304
H       -0.1496311405     0.8612317641     -1.2368284617
H       -1.9275930708     -0.9215959470     -0.2949115828
H       -1.7578737908     0.6170537608     0.5438256268
H       -0.9747141690     -0.8319629700     1.1837516939
$end
--------------------------------------------------------------

             Standard Nuclear Orientation (Angstroms)
    I     Atom           X                Y                Z
 ----------------------------------------------------------------
    1      C       1.2319615866     0.2967340950     0.2653604749
    2      C       0.0000009357    -0.0000065384    -0.5813626410
    3      H       0.9747054528     0.8319433896     1.1837597290
    4      H       1.9275721289     0.9216315962    -0.2949066823
    5      H       1.7578986252    -0.6170400989     0.5438015842
    6      C      -1.2319616874    -0.2967284952     0.2653640082
    7      H       0.1496350687    -0.8612598902    -1.2368087304
    8      H      -0.1496311405     0.8612317641    -1.2368284617
    9      H      -1.9275930708    -0.9215959470    -0.2949115828
   10      H      -1.7578737908     0.6170537608     0.5438256268
   11      H      -0.9747141690    -0.8319629700     1.1837516939
 ----------------------------------------------------------------

    7    -119.0979102339      4.52E-06 Convergence criterion met
    6    -119.1410007997      3.86E-06 Convergence criterion met
 Total energy in the final basis set = -119.14100080

                    Orbital Energies (a.u.)
 --------------------------------------------------------------

 Alpha MOs
 -- Occupied --
-10.2729 -10.2643 -10.2643  -0.8809  -0.7772  -0.6772  -0.5451  -0.5238
 -0.4824  -0.4679  -0.4195  -0.4140  -0.4026

                    Cartesian Multipole Moments
 -----------------------------------------------------------------
    Charge (ESU x 10^10)
                -0.0000
    Dipole Moment (Debye)
         X      -0.0000      Y      -0.0000      Z      -0.0907
       Tot       0.0907
    Quadrupole Moments (Debye-Ang)
        XX     -22.3315     XY      -0.1202     YY     -21.2792
        XZ      -0.0000     YZ      -0.0000     ZZ     -21.7932

 Total job time:  25.61s(wall), 70.61s(cpu)
        *  Thank you very much for using Q-Chem.  Have a nice day.  *
