 Q-Chem 5.3 (devel), Q-Chem, Inc., Pleasanton, CA (2020)
 Q-Chem 5.3.0 for Intel X86 EM64T Linux

User input:
--------------------------------------------------------------
$rem
   JOBTYPE  sp
   EXCHANGE   omegaB97X-D
   BASIS   6-311+G(2df,2pd)
   max_scf_cycles   250
   geom_opt_max_cycles   1500
   basis2 6-31G*
   scf_algorithm rca_diis
   SYM_IGNORE  TRUE
   print_input   true
   geom_opt_dmax   80
   pop_mulliken false
   XC_GRID 000075000302
$end

$molecule
0 1
C       1.2613370840     0.2135220122     0.0874213926
C       -0.0000022228     -0.6113239248     -0.1392411869
H       2.1021640180     0.0564312627     -0.5857147701
H       1.5823901765     -0.0701371246     1.0954174971
H       1.0400701110     1.2811123499     0.1077797753
C       -1.2613358307     0.2135314377     0.0874161272
H       -0.0000064845     -1.6149306077     0.2945055334
H       -0.0000003583     -0.7356530753     -1.2239967544
H       -2.1021791765     0.0563969325     -0.5856902294
H       -1.0400748353     1.2811239305     0.1077110065
H       -1.5823625419     -0.0700725270     1.0954366277
$end
--------------------------------------------------------------

             Standard Nuclear Orientation (Angstroms)
    I     Atom           X                Y                Z
 ----------------------------------------------------------------
    1      C       1.2613370840     0.2135220122     0.0874213926
    2      C      -0.0000022228    -0.6113239248    -0.1392411869
    3      H       2.1021640180     0.0564312627    -0.5857147701
    4      H       1.5823901765    -0.0701371246     1.0954174971
    5      H       1.0400701110     1.2811123499     0.1077797753
    6      C      -1.2613358307     0.2135314377     0.0874161272
    7      H      -0.0000064845    -1.6149306077     0.2945055334
    8      H      -0.0000003583    -0.7356530753    -1.2239967544
    9      H      -2.1021791765     0.0563969325    -0.5856902294
   10      H      -1.0400748353     1.2811239305     0.1077110065
   11      H      -1.5823625419    -0.0700725270     1.0954366277
 ----------------------------------------------------------------

    7    -119.0833212773      4.68E-06 Convergence criterion met
    6    -119.1270027150      4.18E-06 Convergence criterion met
 Total energy in the final basis set = -119.12700272

                    Orbital Energies (a.u.)
 --------------------------------------------------------------

 Alpha MOs
 -- Occupied --
-10.2727 -10.2647 -10.2647  -0.8836  -0.7762  -0.6784  -0.5470  -0.5298
 -0.4771  -0.4672  -0.4338  -0.4150  -0.3816

                    Cartesian Multipole Moments
 -----------------------------------------------------------------
    Charge (ESU x 10^10)
                 0.0000
    Dipole Moment (Debye)
         X       0.0000      Y      -0.0562      Z      -0.0612
       Tot       0.0831
    Quadrupole Moments (Debye-Ang)
        XX     -22.2655     XY       0.0000     YY     -21.4827
        XZ      -0.0000     YZ      -0.5442     ZZ     -21.7577

 Total job time:  26.35s(wall), 72.23s(cpu)
        *  Thank you very much for using Q-Chem.  Have a nice day.  *
