 Q-Chem 5.3 (devel), Q-Chem, Inc., Pleasanton, CA (2020)
 Q-Chem 5.3.0 for Intel X86 EM64T Linux

User input:
--------------------------------------------------------------
$rem
   JOBTYPE  sp
   EXCHANGE   omegaB97X-D
   BASIS   6-311+G(2df,2pd)
   max_scf_cycles   250
   geom_opt_max_cycles   1500
   basis2 6-31G*
   scf_algorithm rca_diis
   SYM_IGNORE  TRUE
   print_input   true
   geom_opt_dmax   80
   pop_mulliken false
   XC_GRID 000075000302
$end

$molecule
0 1
C       1.3390142546     0.0000000347     0.3109275157
C       -0.1079732280     -0.0000000234     -0.5835388828
H       1.3764039291     -0.8720354373     0.9706786224
H       1.3764038898     0.8720355099     0.9706786212
H       2.2558181135     0.0000000336     -0.2795021086
C       -1.2023312835     -0.0000001596     0.2017610217
H       -0.2371985931     -0.8701158071     -1.2315790380
H       -0.2371985018     0.8701157826     -1.2315790014
H       -1.2426443141     -0.8887221143     0.8308823066
H       -2.0776500194     0.0000008770     -0.4485662292
H       -1.2426443078     0.8887219698     0.8308821913
$end
--------------------------------------------------------------

             Standard Nuclear Orientation (Angstroms)
    I     Atom           X                Y                Z
 ----------------------------------------------------------------
    1      C       1.3390142546     0.0000000347     0.3109275157
    2      C      -0.1079732280    -0.0000000234    -0.5835388828
    3      H       1.3764039291    -0.8720354373     0.9706786224
    4      H       1.3764038898     0.8720355099     0.9706786212
    5      H       2.2558181135     0.0000000336    -0.2795021086
    6      C      -1.2023312835    -0.0000001596     0.2017610217
    7      H      -0.2371985931    -0.8701158071    -1.2315790380
    8      H      -0.2371985018     0.8701157826    -1.2315790014
    9      H      -1.2426443141    -0.8887221143     0.8308823066
   10      H      -2.0776500194     0.0000008770    -0.4485662292
   11      H      -1.2426443078     0.8887219698     0.8308821913
 ----------------------------------------------------------------

    7    -119.0600416122      5.83E-06 Convergence criterion met
    6    -119.1047862527      4.95E-06 Convergence criterion met
 Total energy in the final basis set = -119.10478625

                    Orbital Energies (a.u.)
 --------------------------------------------------------------

 Alpha MOs
 -- Occupied --
-10.2770 -10.2724 -10.2514  -0.9036  -0.7751  -0.6711  -0.5578  -0.5340
 -0.4809  -0.4641  -0.4428  -0.3987  -0.3896

                    Cartesian Multipole Moments
 -----------------------------------------------------------------
    Charge (ESU x 10^10)
                -0.0000
    Dipole Moment (Debye)
         X      -0.1234      Y       0.0000      Z      -0.0797
       Tot       0.1469
    Quadrupole Moments (Debye-Ang)
        XX     -22.0219     XY      -0.0000     YY     -21.3615
        XZ       0.8275     YZ      -0.0000     ZZ     -21.8985

 Total job time:  26.61s(wall), 72.78s(cpu)
        *  Thank you very much for using Q-Chem.  Have a nice day.  *
