 Q-Chem 5.3 (devel), Q-Chem, Inc., Pleasanton, CA (2020)
 Q-Chem 5.3.0 for Intel X86 EM64T Linux

User input:
--------------------------------------------------------------
$rem
   JOBTYPE  sp
   EXCHANGE   omegaB97X-D
   BASIS   6-311+G(2df,2pd)
   max_scf_cycles   250
   geom_opt_max_cycles   1500
   basis2 6-31G*
   scf_algorithm rca_diis
   SYM_IGNORE  TRUE
   print_input   true
   geom_opt_dmax   80
   pop_mulliken false
   XC_GRID 000075000302
$end

$molecule
0 1
C       1.2531023860     0.1884973835     0.2625303759
C       0.0000003928     -0.0000040551     -0.5841833892
H       1.0222828854     0.1624666493     1.3305699481
H       1.7126752057     1.1544166882     0.0492647487
H       1.9950563011     -0.5845810107     0.0601034983
C       -1.2531024455     -0.1884935654     0.2625316902
H       0.0945162698     -0.8688676634     -1.2398508726
H       -0.0945145382     0.8688498629     -1.2398635240
H       -1.7126923900     -1.1544024553     0.0492544944
H       -1.9950445518     0.5845992453     0.0601167022
H       -1.0222795759     -0.1624804133     1.3305713469
$end
--------------------------------------------------------------

             Standard Nuclear Orientation (Angstroms)
    I     Atom           X                Y                Z
 ----------------------------------------------------------------
    1      C       1.2531023860     0.1884973835     0.2625303759
    2      C       0.0000003928    -0.0000040551    -0.5841833892
    3      H       1.0222828854     0.1624666493     1.3305699481
    4      H       1.7126752057     1.1544166882     0.0492647487
    5      H       1.9950563011    -0.5845810107     0.0601034983
    6      C      -1.2531024455    -0.1884935654     0.2625316902
    7      H       0.0945162698    -0.8688676634    -1.2398508726
    8      H      -0.0945145382     0.8688498629    -1.2398635240
    9      H      -1.7126923900    -1.1544024553     0.0492544944
   10      H      -1.9950445518     0.5845992453     0.0601167022
   11      H      -1.0222795759    -0.1624804133     1.3305713469
 ----------------------------------------------------------------

    7    -119.0907156945      4.17E-06 Convergence criterion met
    6    -119.1341446447      3.95E-06 Convergence criterion met
 Total energy in the final basis set = -119.13414464

                    Orbital Energies (a.u.)
 --------------------------------------------------------------

 Alpha MOs
 -- Occupied --
-10.2713 -10.2631 -10.2631  -0.8809  -0.7762  -0.6776  -0.5444  -0.5277
 -0.4754  -0.4707  -0.4225  -0.4113  -0.3976

                    Cartesian Multipole Moments
 -----------------------------------------------------------------
    Charge (ESU x 10^10)
                -0.0000
    Dipole Moment (Debye)
         X      -0.0000      Y      -0.0000      Z      -0.0973
       Tot       0.0973
    Quadrupole Moments (Debye-Ang)
        XX     -22.4288     XY      -0.1338     YY     -21.2104
        XZ       0.0000     YZ      -0.0000     ZZ     -21.8136

 Total job time:  26.49s(wall), 72.37s(cpu)
        *  Thank you very much for using Q-Chem.  Have a nice day.  *
