 Q-Chem 5.3 (devel), Q-Chem, Inc., Pleasanton, CA (2020)
 Q-Chem 5.3.0 for Intel X86 EM64T Linux

User input:
--------------------------------------------------------------
$rem
   JOBTYPE  sp
   EXCHANGE   omegaB97X-D
   BASIS   6-311+G(2df,2pd)
   max_scf_cycles   250
   geom_opt_max_cycles   1500
   basis2 6-31G*
   scf_algorithm rca_diis
   SYM_IGNORE  TRUE
   print_input   true
   geom_opt_dmax   80
   pop_mulliken false
   XC_GRID 000075000302
$end

$molecule
0 1
C       1.1598967119     0.5102607364     0.2656139667
C       0.0000026372     -0.0000117120     -0.5811391379
H       1.2042599604     1.6037954699     0.2995165483
H       2.0983900687     0.1568424715     -0.1583670224
H       1.1020918584     0.1414033591     1.2901750499
C       -1.1598976914     -0.5102526992     0.2656241126
H       0.2613188880     -0.8347697482     -1.2358532407
H       -0.2613077040     0.8347212361     -1.2358866988
H       -2.0983819902     -0.1567741829     -0.1583285367
H       -1.1020582992     -0.1414270400     1.2901946040
H       -1.2043145004     -1.6037872247     0.2994953739
$end
--------------------------------------------------------------

             Standard Nuclear Orientation (Angstroms)
    I     Atom           X                Y                Z
 ----------------------------------------------------------------
    1      C       1.1598967119     0.5102607364     0.2656139667
    2      C       0.0000026372    -0.0000117120    -0.5811391379
    3      H       1.2042599604     1.6037954699     0.2995165483
    4      H       2.0983900687     0.1568424715    -0.1583670224
    5      H       1.1020918584     0.1414033591     1.2901750499
    6      C      -1.1598976914    -0.5102526992     0.2656241126
    7      H       0.2613188880    -0.8347697482    -1.2358532407
    8      H      -0.2613077040     0.8347212361    -1.2358866988
    9      H      -2.0983819902    -0.1567741829    -0.1583285367
   10      H      -1.1020582992    -0.1414270400     1.2901946040
   11      H      -1.2043145004    -1.6037872247     0.2994953739
 ----------------------------------------------------------------

    7    -119.0915575754      4.37E-06 Convergence criterion met
    6    -119.1348738211      3.92E-06 Convergence criterion met
 Total energy in the final basis set = -119.13487382

                    Orbital Energies (a.u.)
 --------------------------------------------------------------

 Alpha MOs
 -- Occupied --
-10.2719 -10.2636 -10.2635  -0.8810  -0.7768  -0.6773  -0.5444  -0.5262
 -0.4797  -0.4699  -0.4214  -0.4161  -0.3934

                    Cartesian Multipole Moments
 -----------------------------------------------------------------
    Charge (ESU x 10^10)
                 0.0000
    Dipole Moment (Debye)
         X       0.0000      Y       0.0000      Z      -0.0991
       Tot       0.0991
    Quadrupole Moments (Debye-Ang)
        XX     -22.3983     XY      -0.2366     YY     -21.2147
        XZ       0.0000     YZ      -0.0000     ZZ     -21.8226

 Total job time:  26.63s(wall), 72.69s(cpu)
        *  Thank you very much for using Q-Chem.  Have a nice day.  *
