 Q-Chem 5.2 (devel), Q-Chem, Inc., Pleasanton, CA (2019)
 Q-Chem 5.2.2 for Intel X86 EM64T Linux

User input:
--------------------------------------------------------------
$rem
   JOBTYPE  sp
   EXCHANGE   omegaB97X-D
   BASIS   6-311+G(2df,2pd)
   max_scf_cycles   250
   geom_opt_max_cycles   1500
   basis2 6-31G*
   scf_algorithm rca_diis
   SYM_IGNORE  TRUE
   print_input   true
   geom_opt_dmax   80
   pop_mulliken false
   XC_GRID 000075000302
$end

$molecule
0 1
C       1.2619501528     -0.2053536274     0.1037359873
C       -0.0000019144     0.5996197022     -0.1830006372
H       1.4970485878     0.0254077389     1.1480892439
H       2.1463615601     0.0142479397     -0.4919182907
H       1.0724202004     -1.2775807890     0.0441148365
C       -1.2619501992     -0.2053614545     0.1037326605
H       -0.0000009586     0.6594184147     -1.2732620264
H       -0.0000058363     1.6275685634     0.1892880890
H       -1.4970223694     0.0253434915     1.1481037074
H       -1.0724246137     -1.2775862070     0.0440494108
H       -2.1463746701     0.0142768936     -0.4918879623
--------------------------------------------------------------

             Standard Nuclear Orientation (Angstroms)
    I     Atom           X                Y                Z
 ----------------------------------------------------------------
    1      C       1.2619501528    -0.2053536274     0.1037359873
    2      C      -0.0000019144     0.5996197022    -0.1830006372
    3      H       1.4970485878     0.0254077389     1.1480892439
    4      H       2.1463615601     0.0142479397    -0.4919182907
    5      H       1.0724202004    -1.2775807890     0.0441148365
    6      C      -1.2619501992    -0.2053614545     0.1037326605
    7      H      -0.0000009586     0.6594184147    -1.2732620264
    8      H      -0.0000058363     1.6275685634     0.1892880890
    9      H      -1.4970223694     0.0253434915     1.1481037074
   10      H      -1.0724246137    -1.2775862070     0.0440494108
   11      H      -2.1463746701     0.0142768936    -0.4918879623
 ----------------------------------------------------------------

    7    -119.0874445894      4.73E-06 Convergence criterion met
    6    -119.1309677988      4.18E-06 Convergence criterion met
 Total energy in the final basis set = -119.13096780

                    Orbital Energies (a.u.)
 --------------------------------------------------------------

 Alpha MOs
 -- Occupied --
-10.2732 -10.2653 -10.2653  -0.8836  -0.7764  -0.6784  -0.5475  -0.5295
 -0.4758  -0.4670  -0.4324  -0.4190  -0.3835

                    Cartesian Multipole Moments
 -----------------------------------------------------------------
    Charge (ESU x 10^10)
                -0.0000
    Dipole Moment (Debye)
         X      -0.0000      Y       0.0447      Z      -0.0654
       Tot       0.0792
    Quadrupole Moments (Debye-Ang)
        XX     -22.1384     XY      -0.0000     YY     -21.4637
        XZ      -0.0000     YZ       0.5254     ZZ     -21.8697

 Total job time:  45.72s(wall), 124.49s(cpu)
        *  Thank you very much for using Q-Chem.  Have a nice day.  *
