 Q-Chem 5.3 (devel), Q-Chem, Inc., Pleasanton, CA (2020)
 Q-Chem 5.3.0 for Intel X86 EM64T Linux

User input:
--------------------------------------------------------------
$rem
   JOBTYPE  sp
   EXCHANGE   omegaB97X-D
   BASIS   6-311+G(2df,2pd)
   max_scf_cycles   250
   geom_opt_max_cycles   1500
   basis2 6-31G*
   scf_algorithm rca_diis
   SYM_IGNORE  TRUE
   print_input   true
   geom_opt_dmax   80
   pop_mulliken false
   XC_GRID 000075000302
$end

$molecule
0 1
C       1.2592619930     -0.2330113879     0.0380802758
C       -0.0000026237     0.6245539942     -0.0013109646
H       1.8177644526     0.1981678241     0.8765265210
H       1.9170769348     -0.2488257766     -0.8282793550
H       1.0278008655     -1.2647197788     0.3047741072
C       -1.2592629207     -0.2330188234     0.0380744666
H       -0.0000015269     0.9390682161     -1.0467607769
H       -0.0000069789     1.5332096720     0.6069444193
H       -1.8177416423     0.1980992832     0.8765670471
H       -1.0277832386     -1.2647426262     0.3046939292
H       -1.9171053754     -0.2487799308     -0.8282646508
$end
--------------------------------------------------------------

             Standard Nuclear Orientation (Angstroms)
    I     Atom           X                Y                Z
 ----------------------------------------------------------------
    1      C       1.2592619930    -0.2330113879     0.0380802758
    2      C      -0.0000026237     0.6245539942    -0.0013109646
    3      H       1.8177644526     0.1981678241     0.8765265210
    4      H       1.9170769348    -0.2488257766    -0.8282793550
    5      H       1.0278008655    -1.2647197788     0.3047741072
    6      C      -1.2592629207    -0.2330188234     0.0380744666
    7      H      -0.0000015269     0.9390682161    -1.0467607769
    8      H      -0.0000069789     1.5332096720     0.6069444193
    9      H      -1.8177416423     0.1980992832     0.8765670471
   10      H      -1.0277832386    -1.2647426262     0.3046939292
   11      H      -1.9171053754    -0.2487799308    -0.8282646508
 ----------------------------------------------------------------

    7    -119.0748649033      4.66E-06 Convergence criterion met
    5    -119.1188723886      9.97E-06 Convergence criterion met
 Total energy in the final basis set = -119.11887239

                    Orbital Energies (a.u.)
 --------------------------------------------------------------

 Alpha MOs
 -- Occupied --
-10.2723 -10.2632 -10.2632  -0.8837  -0.7763  -0.6779  -0.5463  -0.5290
 -0.4858  -0.4638  -0.4347  -0.4043  -0.3811

                    Cartesian Multipole Moments
 -----------------------------------------------------------------
    Charge (ESU x 10^10)
                -0.0000
    Dipole Moment (Debye)
         X       0.0000      Y       0.1168      Z      -0.0613
       Tot       0.1319
    Quadrupole Moments (Debye-Ang)
        XX     -22.5763     XY      -0.0000     YY     -21.5962
        XZ      -0.0000     YZ       0.5422     ZZ     -21.4051

 Total job time:  25.31s(wall), 67.75s(cpu)
        *  Thank you very much for using Q-Chem.  Have a nice day.  *
