 Q-Chem 5.2 (devel), Q-Chem, Inc., Pleasanton, CA (2019)
 Q-Chem 5.2.2 for Intel X86 EM64T Linux

User input:
--------------------------------------------------------------
$rem
   JOBTYPE  sp
   EXCHANGE   omegaB97X-D
   BASIS   6-311+G(2df,2pd)
   max_scf_cycles   250
   geom_opt_max_cycles   1500
   basis2 6-31G*
   scf_algorithm rca_diis
   SYM_IGNORE  TRUE
   print_input   true
   geom_opt_dmax   80
   pop_mulliken false
   XC_GRID 000075000302
$end

$molecule
0 1
C       1.2626293537     -0.1075546295     0.2605993655
C       0.0000000874     0.0000024413     -0.5861113891
H       1.5341908014     -1.1533927575     0.4130216672
H       1.1178657751     0.3416973855     1.2458984552
H       2.1085911176     0.3906150603     -0.2140572899
C       -1.2626292435     0.1075526095     0.2606001978
H       -0.0537776046     -0.8722479024     -1.2418886247
H       0.0537776084     0.8722582029     -1.2418816188
H       -1.1178603978     -0.3416904352     1.2459024169
H       -2.1085863198     -0.3906281993     -0.2140531699
H       -1.5342012385     1.1533888905     0.4130150087
--------------------------------------------------------------

             Standard Nuclear Orientation (Angstroms)
    I     Atom           X                Y                Z
 ----------------------------------------------------------------
    1      C       1.2626293537    -0.1075546295     0.2605993655
    2      C       0.0000000874     0.0000024413    -0.5861113891
    3      H       1.5341908014    -1.1533927575     0.4130216672
    4      H       1.1178657751     0.3416973855     1.2458984552
    5      H       2.1085911176     0.3906150603    -0.2140572899
    6      C      -1.2626292435     0.1075526095     0.2606001978
    7      H      -0.0537776046    -0.8722479024    -1.2418886247
    8      H       0.0537776084     0.8722582029    -1.2418816188
    9      H      -1.1178603978    -0.3416904352     1.2459024169
   10      H      -2.1085863198    -0.3906281993    -0.2140531699
   11      H      -1.5342012385     1.1533888905     0.4130150087
 ----------------------------------------------------------------

    7    -119.0964461579      4.37E-06 Convergence criterion met
    6    -119.1395877195      3.95E-06 Convergence criterion met
 Total energy in the final basis set = -119.13958772

                    Orbital Energies (a.u.)
 --------------------------------------------------------------

 Alpha MOs
 -- Occupied --
-10.2723 -10.2642 -10.2642  -0.8810  -0.7767  -0.6775  -0.5446  -0.5259
 -0.4789  -0.4689  -0.4196  -0.4154  -0.4009

                    Cartesian Multipole Moments
 -----------------------------------------------------------------
    Charge (ESU x 10^10)
                 0.0000
    Dipole Moment (Debye)
         X      -0.0000      Y       0.0000      Z      -0.0850
       Tot       0.0850
    Quadrupole Moments (Debye-Ang)
        XX     -22.2856     XY       0.0701     YY     -21.2671
        XZ       0.0000     YZ       0.0000     ZZ     -21.8548

 Total job time:  35.21s(wall), 98.66s(cpu)
        *  Thank you very much for using Q-Chem.  Have a nice day.  *
