 Q-Chem 5.3 (devel), Q-Chem, Inc., Pleasanton, CA (2020)
 Q-Chem 5.3.0 for Intel X86 EM64T Linux

User input:
--------------------------------------------------------------
$rem
   JOBTYPE  sp
   EXCHANGE   omegaB97X-D
   BASIS   6-311+G(2df,2pd)
   max_scf_cycles   250
   geom_opt_max_cycles   1500
   basis2 6-31G*
   scf_algorithm rca_diis
   SYM_IGNORE  TRUE
   print_input   true
   geom_opt_dmax   80
   pop_mulliken false
   XC_GRID 000075000302
$end

$molecule
0 1
C       1.3023250964     0.0000000173     0.2860118181
C       -0.0539698997     -0.0000000101     -0.5862875395
H       1.3398918686     -0.8764223258     0.9380215501
H       1.3398918493     0.8764223631     0.9380215482
H       2.2097232860     0.0000000160     -0.3187674362
C       -1.2338280139     -0.0000000896     0.2314003134
H       -0.1189309743     -0.8729291269     -1.2401464838
H       -0.1189309580     0.8729291147     -1.2401464623
H       -1.2727976342     -0.8847636054     0.8680980322
H       -2.1205770514     0.0000007791     -0.4032582944
H       -1.2727976294     0.8847635337     0.8680979730
$end
--------------------------------------------------------------

             Standard Nuclear Orientation (Angstroms)
    I     Atom           X                Y                Z
 ----------------------------------------------------------------
    1      C       1.3023250964     0.0000000173     0.2860118181
    2      C      -0.0539698997    -0.0000000101    -0.5862875395
    3      H       1.3398918686    -0.8764223258     0.9380215501
    4      H       1.3398918493     0.8764223631     0.9380215482
    5      H       2.2097232860     0.0000000160    -0.3187674362
    6      C      -1.2338280139    -0.0000000896     0.2314003134
    7      H      -0.1189309743    -0.8729291269    -1.2401464838
    8      H      -0.1189309580     0.8729291147    -1.2401464623
    9      H      -1.2727976342    -0.8847636054     0.8680980322
   10      H      -2.1205770514     0.0000007791    -0.4032582944
   11      H      -1.2727976294     0.8847635337     0.8680979730
 ----------------------------------------------------------------

    7    -119.0927993033      4.85E-06 Convergence criterion met
    6    -119.1361501227      4.28E-06 Convergence criterion met
 Total energy in the final basis set = -119.13615012

                    Orbital Energies (a.u.)
 --------------------------------------------------------------

 Alpha MOs
 -- Occupied --
-10.2736 -10.2715 -10.2582  -0.8870  -0.7766  -0.6759  -0.5487  -0.5267
 -0.4821  -0.4638  -0.4310  -0.4052  -0.4044

                    Cartesian Multipole Moments
 -----------------------------------------------------------------
    Charge (ESU x 10^10)
                -0.0000
    Dipole Moment (Debye)
         X      -0.0527      Y       0.0000      Z      -0.0833
       Tot       0.0986
    Quadrupole Moments (Debye-Ang)
        XX     -22.1295     XY      -0.0000     YY     -21.3621
        XZ       0.4165     YZ      -0.0000     ZZ     -21.8561

 Total job time:  26.85s(wall), 72.81s(cpu)
        *  Thank you very much for using Q-Chem.  Have a nice day.  *
