 Q-Chem 5.3 (devel), Q-Chem, Inc., Pleasanton, CA (2020)
 Q-Chem 5.3.0 for Intel X86 EM64T Linux

User input:
--------------------------------------------------------------
$rem
   JOBTYPE  sp
   EXCHANGE   omegaB97X-D
   BASIS   6-311+G(2df,2pd)
   max_scf_cycles   250
   geom_opt_max_cycles   1500
   basis2 6-31G*
   scf_algorithm rca_diis
   SYM_IGNORE  TRUE
   print_input   true
   geom_opt_dmax   80
   pop_mulliken false
   XC_GRID 000075000302
$end

$molecule
0 1
C       1.2625498043     0.1963950925     0.1197462363
C       -0.0000017938     -0.5843998025     -0.2252842978
H       2.1795970442     -0.0879901029     -0.3938194827
H       1.4119606509     0.0213929820     1.1901755881
H       1.1178616461     1.2686005688     -0.0165012906
C       -1.2625485037     0.1964042319     0.1197418775
H       -0.0000057664     -1.6328754738     0.0843652967
H       0.0000001497     -0.5795686532     -1.3172125201
H       -2.1796041620     -0.0880161979     -0.3937903503
H       -1.1178738043     1.2686044299     -0.0165594285
H       -1.4119353256     0.0214535913     1.1901833904
$end
--------------------------------------------------------------

             Standard Nuclear Orientation (Angstroms)
    I     Atom           X                Y                Z
 ----------------------------------------------------------------
    1      C       1.2625498043     0.1963950925     0.1197462363
    2      C      -0.0000017938    -0.5843998025    -0.2252842978
    3      H       2.1795970442    -0.0879901029    -0.3938194827
    4      H       1.4119606509     0.0213929820     1.1901755881
    5      H       1.1178616461     1.2686005688    -0.0165012906
    6      C      -1.2625485037     0.1964042319     0.1197418775
    7      H      -0.0000057664    -1.6328754738     0.0843652967
    8      H       0.0000001497    -0.5795686532    -1.3172125201
    9      H      -2.1796041620    -0.0880161979    -0.3937903503
   10      H      -1.1178738043     1.2686044299    -0.0165594285
   11      H      -1.4119353256     0.0214535913     1.1901833904
 ----------------------------------------------------------------

    7    -119.0912938751      4.76E-06 Convergence criterion met
    6    -119.1346615158      4.17E-06 Convergence criterion met
 Total energy in the final basis set = -119.13466152

                    Orbital Energies (a.u.)
 --------------------------------------------------------------

 Alpha MOs
 -- Occupied --
-10.2737 -10.2658 -10.2658  -0.8836  -0.7766  -0.6783  -0.5479  -0.5291
 -0.4758  -0.4655  -0.4304  -0.4228  -0.3860

                    Cartesian Multipole Moments
 -----------------------------------------------------------------
    Charge (ESU x 10^10)
                -0.0000
    Dipole Moment (Debye)
         X      -0.0000      Y      -0.0372      Z      -0.0706
       Tot       0.0798
    Quadrupole Moments (Debye-Ang)
        XX     -22.0231     XY       0.0000     YY     -21.4567
        XZ      -0.0000     YZ      -0.4986     ZZ     -21.9592

 Total job time:  24.94s(wall), 69.47s(cpu)
        *  Thank you very much for using Q-Chem.  Have a nice day.  *
