 Q-Chem 5.3 (devel), Q-Chem, Inc., Pleasanton, CA (2020)
 Q-Chem 5.3.0 for Intel X86 EM64T Linux

User input:
--------------------------------------------------------------
$rem
   JOBTYPE  sp
   EXCHANGE   omegaB97X-D
   BASIS   6-311+G(2df,2pd)
   max_scf_cycles   250
   geom_opt_max_cycles   1500
   basis2 6-31G*
   scf_algorithm rca_diis
   SYM_IGNORE  TRUE
   print_input   true
   geom_opt_dmax   80
   pop_mulliken false
   XC_GRID 000075000302
$end

$molecule
0 1
C       1.2646346900     -0.0806358675     0.2601319576
C       0.0000000445     0.0000018382     -0.5865776483
H       1.4748496032     -1.1141660597     0.5407289734
H       1.1591512475     0.4955559123     1.1821502630
H       2.1330265963     0.3023679406     -0.2768279425
C       -1.2646346087     0.0806343206     0.2601324822
H       -0.0402932031     -0.8729601054     -1.2423751998
H       0.0402931144     0.8729678441     -1.2423699430
H       -1.1591464353     -0.4955513569     1.1821539058
H       -2.1330238007     -0.3023781169     -0.2768256708
H       -1.4748573087     1.1141643168     0.5407238411
$end
--------------------------------------------------------------

             Standard Nuclear Orientation (Angstroms)
    I     Atom           X                Y                Z
 ----------------------------------------------------------------
    1      C       1.2646346900    -0.0806358675     0.2601319576
    2      C       0.0000000445     0.0000018382    -0.5865776483
    3      H       1.4748496032    -1.1141660597     0.5407289734
    4      H       1.1591512475     0.4955559123     1.1821502630
    5      H       2.1330265963     0.3023679406    -0.2768279425
    6      C      -1.2646346087     0.0806343206     0.2601324822
    7      H      -0.0402932031    -0.8729601054    -1.2423751998
    8      H       0.0402931144     0.8729678441    -1.2423699430
    9      H      -1.1591464353    -0.4955513569     1.1821539058
   10      H      -2.1330238007    -0.3023781169    -0.2768256708
   11      H      -1.4748573087     1.1141643168     0.5407238411
 ----------------------------------------------------------------

    7    -119.0991177746      4.44E-06 Convergence criterion met
    6    -119.1421548833      3.93E-06 Convergence criterion met
 Total energy in the final basis set = -119.14215488

                    Orbital Energies (a.u.)
 --------------------------------------------------------------

 Alpha MOs
 -- Occupied --
-10.2729 -10.2646 -10.2646  -0.8811  -0.7769  -0.6775  -0.5449  -0.5251
 -0.4805  -0.4673  -0.4186  -0.4169  -0.4031

                    Cartesian Multipole Moments
 -----------------------------------------------------------------
    Charge (ESU x 10^10)
                 0.0000
    Dipole Moment (Debye)
         X      -0.0000      Y       0.0000      Z      -0.0837
       Tot       0.0837
    Quadrupole Moments (Debye-Ang)
        XX     -22.2298     XY       0.0560     YY     -21.3000
        XZ       0.0000     YZ       0.0000     ZZ     -21.8598

 Total job time:  25.74s(wall), 71.12s(cpu)
        *  Thank you very much for using Q-Chem.  Have a nice day.  *
