 Q-Chem 5.3 (devel), Q-Chem, Inc., Pleasanton, CA (2020)
 Q-Chem 5.3.0 for Intel X86 EM64T Linux

User input:
--------------------------------------------------------------
$rem
   JOBTYPE  sp
   EXCHANGE   omegaB97X-D
   BASIS   6-311+G(2df,2pd)
   max_scf_cycles   250
   geom_opt_max_cycles   1500
   basis2 6-31G*
   scf_algorithm rca_diis
   SYM_IGNORE  TRUE
   print_input   true
   geom_opt_dmax   80
   pop_mulliken false
   XC_GRID 000075000302
$end

$molecule
0 1
C       1.1095934972     0.6119586247     0.2616896305
C       0.0000036853     -0.0000141115     -0.5850826892
H       1.4584185048     1.5751321525     -0.1268708356
H       1.9612793100     -0.0651908105     0.2725193840
H       0.7927480429     0.7568955443     1.2949973618
C       -1.1095956530     -0.6119494250     0.2617038948
H       0.3161440731     -0.8159982864     -1.2392867980
H       -0.3161279723     0.8159403624     -1.2393269868
H       -1.9612397312     0.0652531453     0.2725805235
H       -0.7927327219     -0.7569362316     1.2949991950
H       -1.4584910954     -1.5750902984     -0.1268776610
$end
--------------------------------------------------------------

             Standard Nuclear Orientation (Angstroms)
    I     Atom           X                Y                Z
 ----------------------------------------------------------------
    1      C       1.1095934972     0.6119586247     0.2616896305
    2      C       0.0000036853    -0.0000141115    -0.5850826892
    3      H       1.4584185048     1.5751321525    -0.1268708356
    4      H       1.9612793100    -0.0651908105     0.2725193840
    5      H       0.7927480429     0.7568955443     1.2949973618
    6      C      -1.1095956530    -0.6119494250     0.2617038948
    7      H       0.3161440731    -0.8159982864    -1.2392867980
    8      H      -0.3161279723     0.8159403624    -1.2393269868
    9      H      -1.9612397312     0.0652531453     0.2725805235
   10      H      -0.7927327219    -0.7569362316     1.2949991950
   11      H      -1.4584910954    -1.5750902984    -0.1268776610
 ----------------------------------------------------------------

    7    -119.0897448846      4.37E-06 Convergence criterion met
    6    -119.1331791305      4.01E-06 Convergence criterion met
 Total energy in the final basis set = -119.13317913

                    Orbital Energies (a.u.)
 --------------------------------------------------------------

 Alpha MOs
 -- Occupied --
-10.2716 -10.2640 -10.2640  -0.8815  -0.7769  -0.6776  -0.5449  -0.5274
 -0.4788  -0.4697  -0.4202  -0.4192  -0.3911

                    Cartesian Multipole Moments
 -----------------------------------------------------------------
    Charge (ESU x 10^10)
                 0.0000
    Dipole Moment (Debye)
         X       0.0000      Y       0.0000      Z      -0.0722
       Tot       0.0722
    Quadrupole Moments (Debye-Ang)
        XX     -22.3690     XY      -0.2498     YY     -21.2531
        XZ      -0.0000     YZ      -0.0000     ZZ     -21.8370

 Total job time:  26.92s(wall), 73.29s(cpu)
        *  Thank you very much for using Q-Chem.  Have a nice day.  *
