 Q-Chem 5.3 (devel), Q-Chem, Inc., Pleasanton, CA (2020)
 Q-Chem 5.3.0 for Intel X86 EM64T Linux

User input:
--------------------------------------------------------------
$rem
   JOBTYPE  sp
   EXCHANGE   omegaB97X-D
   BASIS   6-311+G(2df,2pd)
   max_scf_cycles   250
   geom_opt_max_cycles   1500
   basis2 6-31G*
   scf_algorithm rca_diis
   SYM_IGNORE  TRUE
   print_input   true
   geom_opt_dmax   80
   pop_mulliken false
   XC_GRID 000075000302
$end

$molecule
0 1
C       1.2568701358     0.1614843524     0.2618218582
C       0.0000002935     -0.0000034540     -0.5848902322
H       1.0490333371     -0.0100069897     1.3209265289
H       1.6537148350     1.1729642627     0.1645226188
H       2.0394465871     -0.5337506396     -0.0437020363
C       -1.2568701948     -0.1614810437     0.2618227703
H       0.0808828781     -0.8702117029     -1.2405979619
H       -0.0808815548     0.8701964690     -1.2406088226
H       -1.6537298832     -1.1729542756     0.1645128176
H       -2.0394377672     0.5337680327     -0.0436917520
H       -1.0490287273     0.0099956547     1.3209292302
$end
--------------------------------------------------------------

             Standard Nuclear Orientation (Angstroms)
    I     Atom           X                Y                Z
 ----------------------------------------------------------------
    1      C       1.2568701358     0.1614843524     0.2618218582
    2      C       0.0000002935    -0.0000034540    -0.5848902322
    3      H       1.0490333371    -0.0100069897     1.3209265289
    4      H       1.6537148350     1.1729642627     0.1645226188
    5      H       2.0394465871    -0.5337506396    -0.0437020363
    6      C      -1.2568701948    -0.1614810437     0.2618227703
    7      H       0.0808828781    -0.8702117029    -1.2405979619
    8      H      -0.0808815548     0.8701964690    -1.2406088226
    9      H      -1.6537298832    -1.1729542756     0.1645128176
   10      H      -2.0394377672     0.5337680327    -0.0436917520
   11      H      -1.0490287273     0.0099956547     1.3209292302
 ----------------------------------------------------------------

    7    -119.0916225989      4.19E-06 Convergence criterion met
    6    -119.1349994461      3.96E-06 Convergence criterion met
 Total energy in the final basis set = -119.13499945

                    Orbital Energies (a.u.)
 --------------------------------------------------------------

 Alpha MOs
 -- Occupied --
-10.2715 -10.2633 -10.2633  -0.8810  -0.7763  -0.6776  -0.5444  -0.5276
 -0.4757  -0.4705  -0.4220  -0.4122  -0.3980

                    Cartesian Multipole Moments
 -----------------------------------------------------------------
    Charge (ESU x 10^10)
                 0.0000
    Dipole Moment (Debye)
         X      -0.0000      Y      -0.0000      Z      -0.0946
       Tot       0.0946
    Quadrupole Moments (Debye-Ang)
        XX     -22.4016     XY      -0.1103     YY     -21.2157
        XZ       0.0000     YZ      -0.0000     ZZ     -21.8270

 Total job time:  27.99s(wall), 75.44s(cpu)
        *  Thank you very much for using Q-Chem.  Have a nice day.  *
