 Q-Chem 5.2 (devel), Q-Chem, Inc., Pleasanton, CA (2019)
 Q-Chem 5.2.2 for Intel X86 EM64T Linux

User input:
--------------------------------------------------------------
$rem
   JOBTYPE  sp
   EXCHANGE   omegaB97X-D
   BASIS   6-311+G(2df,2pd)
   max_scf_cycles   250
   geom_opt_max_cycles   1500
   basis2 6-31G*
   scf_algorithm rca_diis
   SYM_IGNORE  TRUE
   print_input   true
   geom_opt_dmax   80
   pop_mulliken false
   XC_GRID 000075000302
$end

$molecule
0 1
C       1.3438600817     0.0000001186     0.2567595376
C       0.0000000001     -0.0000000042     -0.6877849390
H       1.2999230580     -0.8709703220     0.9153105972
H       1.2999234627     0.8709702393     0.9153110327
H       2.3197996679     -0.0000001030     -0.2312108577
C       -1.3438601828     -0.0000001793     0.2567594817
H       0.0000005804     -0.8751045498     -1.3417555015
H       -0.0000002973     0.8751046410     -1.3417553678
H       -1.2999234546     -0.8709701069     0.9153112083
H       -2.3197998745     0.0000006732     -0.2312106924
H       -1.2999231023     0.8709702590     0.9153105198
--------------------------------------------------------------

             Standard Nuclear Orientation (Angstroms)
    I     Atom           X                Y                Z
 ----------------------------------------------------------------
    1      C       1.3438600817     0.0000001186     0.2567595376
    2      C       0.0000000001    -0.0000000042    -0.6877849390
    3      H       1.2999230580    -0.8709703220     0.9153105972
    4      H       1.2999234627     0.8709702393     0.9153110327
    5      H       2.3197996679    -0.0000001030    -0.2312108577
    6      C      -1.3438601828    -0.0000001793     0.2567594817
    7      H       0.0000005804    -0.8751045498    -1.3417555015
    8      H      -0.0000002973     0.8751046410    -1.3417553678
    9      H      -1.2999234546    -0.8709701069     0.9153112083
   10      H      -2.3197998745     0.0000006732    -0.2312106924
   11      H      -1.2999231023     0.8709702590     0.9153105198
 ----------------------------------------------------------------

    7    -119.0885418196      5.91E-06 Convergence criterion met
    5    -119.1308914000      9.66E-06 Convergence criterion met
 Total energy in the final basis set = -119.13089140

                    Orbital Energies (a.u.)
 --------------------------------------------------------------

 Alpha MOs
 -- Occupied --
-10.2935 -10.2751 -10.2751  -0.8532  -0.7707  -0.6885  -0.5298  -0.5150
 -0.4683  -0.4607  -0.4186  -0.4186  -0.4132

                    Cartesian Multipole Moments
 -----------------------------------------------------------------
    Charge (ESU x 10^10)
                 0.0000
    Dipole Moment (Debye)
         X       0.0000      Y       0.0000      Z       0.0036
       Tot       0.0036
    Quadrupole Moments (Debye-Ang)
        XX     -21.5759     XY      -0.0000     YY     -21.6337
        XZ      -0.0000     YZ      -0.0000     ZZ     -21.9170

 Total job time:  31.20s(wall), 86.59s(cpu)
        *  Thank you very much for using Q-Chem.  Have a nice day.  *
