 Q-Chem 5.3 (devel), Q-Chem, Inc., Pleasanton, CA (2020)
 Q-Chem 5.3.0 for Intel X86 EM64T Linux

User input:
--------------------------------------------------------------
$rem
   JOBTYPE  sp
   EXCHANGE   omegaB97X-D
   BASIS   6-311+G(2df,2pd)
   max_scf_cycles   250
   geom_opt_max_cycles   1500
   basis2 6-31G*
   scf_algorithm rca_diis
   SYM_IGNORE  TRUE
   print_input   true
   geom_opt_dmax   80
   pop_mulliken false
   XC_GRID 000075000302
$end

$molecule
0 1
C       1.2606703472     -0.2208760427     0.0709474431
C       -0.0000022946     0.6194440772     -0.0942322514
H       1.6657058635     0.1134248282     1.0322985352
H       2.0482155793     -0.1238191960     -0.6738493259
H       1.0215781996     -1.2798728677     0.1733327825
C       -1.2606708601     -0.2208838014     0.0709429607
H       -0.0000013033     0.8079121358     -1.1696589281
H       -0.0000064309     1.5949823138     0.3995049780
H       -1.6656792803     0.1133575080     1.0323254687
H       -1.0215727976     -1.2798863509     0.1732584769
H       -2.0482370835     -0.1237819382     -0.6738251210
$end
--------------------------------------------------------------

             Standard Nuclear Orientation (Angstroms)
    I     Atom           X                Y                Z
 ----------------------------------------------------------------
    1      C       1.2606703472    -0.2208760427     0.0709474431
    2      C      -0.0000022946     0.6194440772    -0.0942322514
    3      H       1.6657058635     0.1134248282     1.0322985352
    4      H       2.0482155793    -0.1238191960    -0.6738493259
    5      H       1.0215781996    -1.2798728677     0.1733327825
    6      C      -1.2606708601    -0.2208838014     0.0709429607
    7      H      -0.0000013033     0.8079121358    -1.1696589281
    8      H      -0.0000064309     1.5949823138     0.3995049780
    9      H      -1.6656792803     0.1133575080     1.0323254687
   10      H      -1.0215727976    -1.2798863509     0.1732584769
   11      H      -2.0482370835    -0.1237819382    -0.6738251210
 ----------------------------------------------------------------

    7    -119.0795688572      4.64E-06 Convergence criterion met
    6    -119.1233965189      4.17E-06 Convergence criterion met
 Total energy in the final basis set = -119.12339652

                    Orbital Energies (a.u.)
 --------------------------------------------------------------

 Alpha MOs
 -- Occupied --
-10.2722 -10.2642 -10.2641  -0.8837  -0.7762  -0.6783  -0.5465  -0.5300
 -0.4796  -0.4662  -0.4345  -0.4111  -0.3805

                    Cartesian Multipole Moments
 -----------------------------------------------------------------
    Charge (ESU x 10^10)
                -0.0000
    Dipole Moment (Debye)
         X       0.0000      Y       0.0724      Z      -0.0590
       Tot       0.0934
    Quadrupole Moments (Debye-Ang)
        XX     -22.3882     XY      -0.0000     YY     -21.5142
        XZ      -0.0000     YZ       0.5523     ZZ     -21.6348

 Total job time:  28.12s(wall), 75.63s(cpu)
        *  Thank you very much for using Q-Chem.  Have a nice day.  *
