 Q-Chem 5.2 (devel), Q-Chem, Inc., Pleasanton, CA (2019)
 Q-Chem 5.2.2 for Intel X86 EM64T Linux

User input:
--------------------------------------------------------------
$rem
   JOBTYPE  sp
   EXCHANGE   omegaB97X-D
   BASIS   6-311+G(2df,2pd)
   max_scf_cycles   250
   geom_opt_max_cycles   1500
   basis2 6-31G*
   scf_algorithm rca_diis
   SYM_IGNORE  TRUE
   print_input   true
   geom_opt_dmax   80
   pop_mulliken false
   XC_GRID 000075000302
$end

$molecule
0 1
C       1.2471280539     -0.0000012258     0.3352634455
C       -0.0000000498     -0.0000026965     -0.4925429513
H       1.3387787638     -0.9789611197     0.8014623931
H       1.3387812285     0.9789596530     0.8014601938
H       2.2217580838     0.0000054809     -0.1647980242
C       -1.2471281084     -0.0000016412     0.3352629866
H       0.0000003179     -0.6783850175     -1.3565956765
H       0.0000003052     0.6783816231     -1.3565940592
H       -1.3387779837     -0.9789605402     0.8014641137
H       -2.2217579442     0.0000077330     -0.1647987946
H       -1.3387827276     0.9789584168     0.8014613920
--------------------------------------------------------------

             Standard Nuclear Orientation (Angstroms)
    I     Atom           X                Y                Z
 ----------------------------------------------------------------
    1      C       1.2471280539    -0.0000012258     0.3352634455
    2      C      -0.0000000498    -0.0000026965    -0.4925429513
    3      H       1.3387787638    -0.9789611197     0.8014623931
    4      H       1.3387812285     0.9789596530     0.8014601938
    5      H       2.2217580838     0.0000054809    -0.1647980242
    6      C      -1.2471281084    -0.0000016412     0.3352629866
    7      H       0.0000003179    -0.6783850175    -1.3565956765
    8      H       0.0000003052     0.6783816231    -1.3565940592
    9      H      -1.3387779837    -0.9789605402     0.8014641137
   10      H      -2.2217579442     0.0000077330    -0.1647987946
   11      H      -1.3387827276     0.9789584168     0.8014613920
 ----------------------------------------------------------------

    7    -119.0433273984      8.50E-06 Convergence criterion met
    6    -119.0899032587      3.75E-06 Convergence criterion met
 Total energy in the final basis set = -119.08990326

                    Orbital Energies (a.u.)
 --------------------------------------------------------------

 Alpha MOs
 -- Occupied --
-10.2707 -10.2663 -10.2663  -0.8883  -0.7838  -0.6941  -0.5518  -0.5453
 -0.4970  -0.4550  -0.4177  -0.4024  -0.3695

                    Cartesian Multipole Moments
 -----------------------------------------------------------------
    Charge (ESU x 10^10)
                -0.0000
    Dipole Moment (Debye)
         X       0.0000      Y       0.0000      Z      -0.4084
       Tot       0.4084
    Quadrupole Moments (Debye-Ang)
        XX     -21.2228     XY      -0.0000     YY     -21.1775
        XZ      -0.0000     YZ      -0.0000     ZZ     -22.5768

 Total job time:  34.59s(wall), 96.75s(cpu)
        *  Thank you very much for using Q-Chem.  Have a nice day.  *
