 Q-Chem 5.2 (devel), Q-Chem, Inc., Pleasanton, CA (2019)
 Q-Chem 5.2.2 for Intel X86 EM64T Linux

User input:
--------------------------------------------------------------
$rem
   JOBTYPE  sp
   EXCHANGE   omegaB97X-D
   BASIS   6-311+G(2df,2pd)
   max_scf_cycles   250
   geom_opt_max_cycles   1500
   basis2 6-31G*
   scf_algorithm rca_diis
   SYM_IGNORE  TRUE
   print_input   true
   geom_opt_dmax   80
   pop_mulliken false
   XC_GRID 000075000302
$end

$molecule
0 1
C       1.2593437898     0.0790479620     0.2562904591
C       -0.0000000450     -0.0848545812     -0.5862712863
H       1.2039585321     -0.8429385036     0.8457815186
H       1.3894154012     0.9136344333     0.9420754015
H       2.1509442545     -0.0906133737     -0.3481810354
C       -1.2593438057     0.0790481622     0.2562903819
H       0.0000002757     -0.8905911016     -1.3221444280
H       -0.0000003022     0.8571844203     -1.1424718311
H       -1.2039587918     -0.8429383030     0.8457815217
H       -2.1509443417     -0.0906131586     -0.3481810044
H       -1.3894150273     0.9136347099     0.9420753213
--------------------------------------------------------------

             Standard Nuclear Orientation (Angstroms)
    I     Atom           X                Y                Z
 ----------------------------------------------------------------
    1      C       1.2593437898     0.0790479620     0.2562904591
    2      C      -0.0000000450    -0.0848545812    -0.5862712863
    3      H       1.2039585321    -0.8429385036     0.8457815186
    4      H       1.3894154012     0.9136344333     0.9420754015
    5      H       2.1509442545    -0.0906133737    -0.3481810354
    6      C      -1.2593438057     0.0790481622     0.2562903819
    7      H       0.0000002757    -0.8905911016    -1.3221444280
    8      H      -0.0000003022     0.8571844203    -1.1424718311
    9      H      -1.2039587918    -0.8429383030     0.8457815217
   10      H      -2.1509443417    -0.0906131586    -0.3481810044
   11      H      -1.3894150273     0.9136347099     0.9420753213
 ----------------------------------------------------------------

    7    -119.0771962337      5.70E-06 Convergence criterion met
    5    -119.1210449273      1.00E-05 Convergence criterion met
 Total energy in the final basis set = -119.12104493

                    Orbital Energies (a.u.)
 --------------------------------------------------------------

 Alpha MOs
 -- Occupied --
-10.2761 -10.2653 -10.2653  -0.8854  -0.7784  -0.6779  -0.5498  -0.5248
 -0.4952  -0.4503  -0.4441  -0.4148  -0.3739

                    Cartesian Multipole Moments
 -----------------------------------------------------------------
    Charge (ESU x 10^10)
                -0.0000
    Dipole Moment (Debye)
         X      -0.0000      Y      -0.0353      Z      -0.0974
       Tot       0.1036
    Quadrupole Moments (Debye-Ang)
        XX     -22.2815     XY      -0.0000     YY     -21.2844
        XZ       0.0000     YZ       1.0805     ZZ     -21.9826

 Total job time:  31.24s(wall), 86.84s(cpu)
        *  Thank you very much for using Q-Chem.  Have a nice day.  *
