 Q-Chem 5.3 (devel), Q-Chem, Inc., Pleasanton, CA (2020)
 Q-Chem 5.3.0 for Intel X86 EM64T Linux

User input:
--------------------------------------------------------------
$rem
   JOBTYPE  sp
   EXCHANGE   omegaB97X-D
   BASIS   6-311+G(2df,2pd)
   max_scf_cycles   250
   geom_opt_max_cycles   1500
   basis2 6-31G*
   scf_algorithm rca_diis
   SYM_IGNORE  TRUE
   print_input   true
   geom_opt_dmax   80
   pop_mulliken false
   XC_GRID 000075000302
$end

$molecule
0 1
C       1.2534007141     0.2492986808     -0.0633860297
C       -0.0000035808     -0.5245523620     0.3275838011
H       1.4047916192     0.6248013784     -1.0717309723
H       2.0171325453     -0.5128506588     0.1355287652
H       1.4407975911     1.0683743255     0.6316825433
C       -1.2533994455     0.2493056755     -0.0633967961
H       -0.0000086063     -1.1048712760     1.2546680381
H       -0.0000017721     -1.2298774092     -0.5053496526
H       -1.4048094783     0.6247249125     -1.0717708928
H       -1.4407465912     1.0684465426     0.6316076187
H       -2.0171530562     -0.5127991434     0.1356085961
$end
--------------------------------------------------------------

             Standard Nuclear Orientation (Angstroms)
    I     Atom           X                Y                Z
 ----------------------------------------------------------------
    1      C       1.2534007141     0.2492986808    -0.0633860297
    2      C      -0.0000035808    -0.5245523620     0.3275838011
    3      H       1.4047916192     0.6248013784    -1.0717309723
    4      H       2.0171325453    -0.5128506588     0.1355287652
    5      H       1.4407975911     1.0683743255     0.6316825433
    6      C      -1.2533994455     0.2493056755    -0.0633967961
    7      H      -0.0000086063    -1.1048712760     1.2546680381
    8      H      -0.0000017721    -1.2298774092    -0.5053496526
    9      H      -1.4048094783     0.6247249125    -1.0717708928
   10      H      -1.4407465912     1.0684465426     0.6316076187
   11      H      -2.0171530562    -0.5127991434     0.1356085961
 ----------------------------------------------------------------

    7    -119.0740340484      6.37E-06 Convergence criterion met
    5    -119.1177907781      9.10E-06 Convergence criterion met
 Total energy in the final basis set = -119.11779078

                    Orbital Energies (a.u.)
 --------------------------------------------------------------

 Alpha MOs
 -- Occupied --
-10.2764 -10.2631 -10.2631  -0.8850  -0.7785  -0.6765  -0.5473  -0.5144
 -0.5009  -0.4648  -0.4468  -0.3861  -0.3860

                    Cartesian Multipole Moments
 -----------------------------------------------------------------
    Charge (ESU x 10^10)
                -0.0000
    Dipole Moment (Debye)
         X       0.0000      Y      -0.2159      Z      -0.0465
       Tot       0.2209
    Quadrupole Moments (Debye-Ang)
        XX     -23.0989     XY       0.0000     YY     -21.6673
        XZ      -0.0000     YZ      -0.6011     ZZ     -20.8917

 Total job time:  24.63s(wall), 66.58s(cpu)
        *  Thank you very much for using Q-Chem.  Have a nice day.  *
