 Q-Chem 5.3 (devel), Q-Chem, Inc., Pleasanton, CA (2020)
 Q-Chem 5.3.0 for Intel X86 EM64T Linux

User input:
--------------------------------------------------------------
$rem
   JOBTYPE  sp
   EXCHANGE   omegaB97X-D
   BASIS   6-311+G(2df,2pd)
   max_scf_cycles   250
   geom_opt_max_cycles   1500
   basis2 6-31G*
   scf_algorithm rca_diis
   SYM_IGNORE  TRUE
   print_input   true
   geom_opt_dmax   80
   pop_mulliken false
   XC_GRID 000075000302
$end

$molecule
0 1
C       1.1917934782     0.0000003096     0.2589421317
C       0.0000000440     -0.0000011738     -0.6786399968
H       1.1408183173     -0.8776794046     0.9070826152
H       1.1408158594     0.8776802786     0.9070820818
H       2.1621569453     0.0000018820     -0.2363613883
C       -1.1917933415     -0.0000001681     0.2589422210
H       -0.0000002411     -0.8785521697     -1.3269026974
H       0.0000000523     0.8785493608     -1.3269033165
H       -1.1408191346     -0.8776809785     0.9070812717
H       -2.1621567834     0.0000039880     -0.2363615043
H       -1.1408152564     0.8776787417     0.9070836009
$end
--------------------------------------------------------------

             Standard Nuclear Orientation (Angstroms)
    I     Atom           X                Y                Z
 ----------------------------------------------------------------
    1      C       1.1917934782     0.0000003096     0.2589421317
    2      C       0.0000000440    -0.0000011738    -0.6786399968
    3      H       1.1408183173    -0.8776794046     0.9070826152
    4      H       1.1408158594     0.8776802786     0.9070820818
    5      H       2.1621569453     0.0000018820    -0.2363613883
    6      C      -1.1917933415    -0.0000001681     0.2589422210
    7      H      -0.0000002411    -0.8785521697    -1.3269026974
    8      H       0.0000000523     0.8785493608    -1.3269033165
    9      H      -1.1408191346    -0.8776809785     0.9070812717
   10      H      -2.1621567834     0.0000039880    -0.2363615043
   11      H      -1.1408152564     0.8776787417     0.9070836009
 ----------------------------------------------------------------

    7    -119.0988668533      4.82E-06 Convergence criterion met
    5    -119.1419970530      8.72E-06 Convergence criterion met
 Total energy in the final basis set = -119.14199705

                    Orbital Energies (a.u.)
 --------------------------------------------------------------

 Alpha MOs
 -- Occupied --
-10.2737 -10.2638 -10.2638  -0.8890  -0.7698  -0.6817  -0.5510  -0.5316
 -0.4742  -0.4559  -0.4274  -0.4123  -0.4118

                    Cartesian Multipole Moments
 -----------------------------------------------------------------
    Charge (ESU x 10^10)
                -0.0000
    Dipole Moment (Debye)
         X      -0.0000      Y       0.0000      Z      -0.0618
       Tot       0.0618
    Quadrupole Moments (Debye-Ang)
        XX     -22.3433     XY      -0.0000     YY     -21.3239
        XZ      -0.0000     YZ      -0.0000     ZZ     -21.8383

 Total job time:  25.45s(wall), 68.15s(cpu)
        *  Thank you very much for using Q-Chem.  Have a nice day.  *
