 Q-Chem 5.2 (devel), Q-Chem, Inc., Pleasanton, CA (2019)
 Q-Chem 5.2.2 for Intel X86 EM64T Linux

User input:
--------------------------------------------------------------
$rem
   JOBTYPE  sp
   EXCHANGE   omegaB97X-D
   BASIS   6-311+G(2df,2pd)
   max_scf_cycles   250
   geom_opt_max_cycles   1500
   basis2 6-31G*
   scf_algorithm rca_diis
   SYM_IGNORE  TRUE
   print_input   true
   geom_opt_dmax   80
   pop_mulliken false
   XC_GRID 000075000302
$end

$molecule
0 1
C       1.2669621683     0.0067751284     0.2590525142
C       0.0000000092     -0.0420057335     -0.5866116474
H       1.3066442819     -0.9267125406     0.9617067884
H       1.3035629843     0.8333014417     0.8464918770
H       2.1643498098     -0.0110335611     -0.3602217595
C       -1.2669621806     0.0067746819     0.2590524666
H       0.0000001228     -0.7546013903     -1.1146374187
H       -0.0000002008     0.9919452381     -1.3717648081
H       -1.3066440240     -0.9267116645     0.9617059583
H       -2.1643497771     -0.0110335356     -0.3602218114
H       -1.3035632545     0.8333026014     0.8464928597
--------------------------------------------------------------

             Standard Nuclear Orientation (Angstroms)
    I     Atom           X                Y                Z
 ----------------------------------------------------------------
    1      C       1.2669621683     0.0067751284     0.2590525142
    2      C       0.0000000092    -0.0420057335    -0.5866116474
    3      H       1.3066442819    -0.9267125406     0.9617067884
    4      H       1.3035629843     0.8333014417     0.8464918770
    5      H       2.1643498098    -0.0110335611    -0.3602217595
    6      C      -1.2669621806     0.0067746819     0.2590524666
    7      H       0.0000001228    -0.7546013903    -1.1146374187
    8      H      -0.0000002008     0.9919452381    -1.3717648081
    9      H      -1.3066440240    -0.9267116645     0.9617059583
   10      H      -2.1643497771    -0.0110335356    -0.3602218114
   11      H      -1.3035632545     0.8333026014     0.8464928597
 ----------------------------------------------------------------

    7    -119.0311253815      5.87E-06 Convergence criterion met
    6    -119.0770701832      4.21E-06 Convergence criterion met
 Total energy in the final basis set = -119.07707018

                    Orbital Energies (a.u.)
 --------------------------------------------------------------

 Alpha MOs
 -- Occupied --
-10.2721 -10.2660 -10.2660  -0.8876  -0.7802  -0.6959  -0.5443  -0.5217
 -0.4932  -0.4561  -0.4411  -0.4205  -0.3878

                    Cartesian Multipole Moments
 -----------------------------------------------------------------
    Charge (ESU x 10^10)
                -0.0000
    Dipole Moment (Debye)
         X      -0.0000      Y      -0.0673      Z      -0.0024
       Tot       0.0673
    Quadrupole Moments (Debye-Ang)
        XX     -22.0525     XY       0.0000     YY     -21.3982
        XZ      -0.0000     YZ       0.3786     ZZ     -22.0129

 Total job time:  35.17s(wall), 98.16s(cpu)
        *  Thank you very much for using Q-Chem.  Have a nice day.  *
