 Q-Chem 5.3 (devel), Q-Chem, Inc., Pleasanton, CA (2020)
 Q-Chem 5.3.0 for Intel X86 EM64T Linux

User input:
--------------------------------------------------------------
$rem
   JOBTYPE  sp
   EXCHANGE   omegaB97X-D
   BASIS   6-311+G(2df,2pd)
   max_scf_cycles   250
   geom_opt_max_cycles   1500
   basis2 6-31G*
   scf_algorithm rca_diis
   SYM_IGNORE  TRUE
   print_input   true
   geom_opt_dmax   80
   pop_mulliken false
   XC_GRID 000075000302
$end

$molecule
0 1
C       0.8956995010     0.8962663990     0.2512370544
C       0.0000078048     -0.0000196240     -0.5955999266
H       1.9592486067     0.6274905907     0.2109442598
H       0.5743928143     0.8087846271     1.2849331809
H       0.7961540888     1.9447681197     -0.0313538258
C       -0.8957080367     -0.8962500630     0.2512698771
H       0.4774427811     -0.7354474512     -1.2474897881
H       -0.4774062110     0.7353648108     -1.2475524004
H       -0.5743167023     -0.8088273978     1.2849461286
H       -0.7962776247     -1.9447546446     -0.0313504540
H       -1.9592370826     -0.6273747009     0.2110609131
$end
--------------------------------------------------------------

             Standard Nuclear Orientation (Angstroms)
    I     Atom           X                Y                Z
 ----------------------------------------------------------------
    1      C       0.8956995010     0.8962663990     0.2512370544
    2      C       0.0000078048    -0.0000196240    -0.5955999266
    3      H       1.9592486067     0.6274905907     0.2109442598
    4      H       0.5743928143     0.8087846271     1.2849331809
    5      H       0.7961540888     1.9447681197    -0.0313538258
    6      C      -0.8957080367    -0.8962500630     0.2512698771
    7      H       0.4774427811    -0.7354474512    -1.2474897881
    8      H      -0.4774062110     0.7353648108    -1.2475524004
    9      H      -0.5743167023    -0.8088273978     1.2849461286
   10      H      -0.7962776247    -1.9447546446    -0.0313504540
   11      H      -1.9592370826    -0.6273747009     0.2110609131
 ----------------------------------------------------------------

    7    -119.0834385274      4.34E-06 Convergence criterion met
    6    -119.1272611651      4.15E-06 Convergence criterion met
 Total energy in the final basis set = -119.12726117

                    Orbital Energies (a.u.)
 --------------------------------------------------------------

 Alpha MOs
 -- Occupied --
-10.2714 -10.2643 -10.2643  -0.8830  -0.7769  -0.6787  -0.5457  -0.5324
 -0.4727  -0.4713  -0.4206  -0.4169  -0.3914

                    Cartesian Multipole Moments
 -----------------------------------------------------------------
    Charge (ESU x 10^10)
                -0.0000
    Dipole Moment (Debye)
         X       0.0000      Y      -0.0000      Z      -0.0525
       Tot       0.0525
    Quadrupole Moments (Debye-Ang)
        XX     -22.1071     XY      -0.4978     YY     -21.3711
        XZ       0.0000     YZ      -0.0000     ZZ     -22.0236

 Total job time:  26.80s(wall), 73.16s(cpu)
        *  Thank you very much for using Q-Chem.  Have a nice day.  *
