 Q-Chem 5.3 (devel), Q-Chem, Inc., Pleasanton, CA (2020)
 Q-Chem 5.3.0 for Intel X86 EM64T Linux

User input:
--------------------------------------------------------------
$rem
   JOBTYPE  sp
   EXCHANGE   omegaB97X-D
   BASIS   6-311+G(2df,2pd)
   max_scf_cycles   250
   geom_opt_max_cycles   1500
   basis2 6-31G*
   scf_algorithm rca_diis
   SYM_IGNORE  TRUE
   print_input   true
   geom_opt_dmax   80
   pop_mulliken false
   XC_GRID 000075000302
$end

$molecule
0 1
C       1.2494240167     -0.2421824600     -0.1051078210
C       -0.0000024295     0.3938410047     0.4924902036
H       1.8261984170     0.6743385365     -0.2859404469
H       1.2434742293     -0.8278301027     -1.0194520125
H       1.7973307983     -0.8066614690     0.6500633465
C       -1.2494218855     -0.2421842695     -0.1051223151
H       0.0000000691     1.2686119966     -0.1599514684
H       -0.0000090368     0.7422565291     1.5294174375
H       -1.8262555834     0.6743185118     -0.2858517838
H       -1.7972694519     -0.8067605416     0.6500198395
H       -1.2434692038     -0.8277470699     -1.0195199605
$end
--------------------------------------------------------------

             Standard Nuclear Orientation (Angstroms)
    I     Atom           X                Y                Z
 ----------------------------------------------------------------
    1      C       1.2494240167    -0.2421824600    -0.1051078210
    2      C      -0.0000024295     0.3938410047     0.4924902036
    3      H       1.8261984170     0.6743385365    -0.2859404469
    4      H       1.2434742293    -0.8278301027    -1.0194520125
    5      H       1.7973307983    -0.8066614690     0.6500633465
    6      C      -1.2494218855    -0.2421842695    -0.1051223151
    7      H       0.0000000691     1.2686119966    -0.1599514684
    8      H      -0.0000090368     0.7422565291     1.5294174375
    9      H      -1.8262555834     0.6743185118    -0.2858517838
   10      H      -1.7972694519    -0.8067605416     0.6500198395
   11      H      -1.2434692038    -0.8277470699    -1.0195199605
 ----------------------------------------------------------------

    7    -119.0566486676      6.73E-06 Convergence criterion met
    5    -119.1012611793      9.13E-06 Convergence criterion met
 Total energy in the final basis set = -119.10126118

                    Orbital Energies (a.u.)
 --------------------------------------------------------------

 Alpha MOs
 -- Occupied --
-10.2749 -10.2620 -10.2620  -0.8870  -0.7783  -0.6754  -0.5499  -0.5114
 -0.5009  -0.4652  -0.4523  -0.3814  -0.3749

                    Cartesian Multipole Moments
 -----------------------------------------------------------------
    Charge (ESU x 10^10)
                -0.0000
    Dipole Moment (Debye)
         X      -0.0000      Y       0.2050      Z      -0.0065
       Tot       0.2051
    Quadrupole Moments (Debye-Ang)
        XX     -23.4111     XY      -0.0000     YY     -21.6046
        XZ       0.0000     YZ       0.4763     ZZ     -20.7414

 Total job time:  25.24s(wall), 68.00s(cpu)
        *  Thank you very much for using Q-Chem.  Have a nice day.  *
