 Q-Chem 5.3 (devel), Q-Chem, Inc., Pleasanton, CA (2020)
 Q-Chem 5.3.0 for Intel X86 EM64T Linux

User input:
--------------------------------------------------------------
$rem
   JOBTYPE  sp
   EXCHANGE   omegaB97X-D
   BASIS   6-311+G(2df,2pd)
   max_scf_cycles   250
   geom_opt_max_cycles   1500
   basis2 6-31G*
   scf_algorithm rca_diis
   SYM_IGNORE  TRUE
   print_input   true
   geom_opt_dmax   80
   pop_mulliken false
   XC_GRID 000075000302
$end

$molecule
0 1
C       1.2200953863     -0.0000031012     0.3050756190
C       -0.0482616479     -0.0000014562     -0.5807468404
H       1.3145681335     -1.0089999718     0.6989197648
H       1.3145811422     1.0089946780     0.6989158307
H       2.2062605526     0.0000116701     -0.1792469341
C       -1.3139747021     0.0000018471     0.2261353325
H       0.0373350335     -0.8721747783     -1.2332378340
H       0.0373350006     0.8721727924     -1.2332364371
H       -1.3315294555     -0.6931699560     1.0755382363
H       -2.1048872674     -0.0000037710     -0.5126105550
H       -1.3315222364     0.6931727130     1.0755388361
$end
--------------------------------------------------------------

             Standard Nuclear Orientation (Angstroms)
    I     Atom           X                Y                Z
 ----------------------------------------------------------------
    1      C       1.2200953863    -0.0000031012     0.3050756190
    2      C      -0.0482616479    -0.0000014562    -0.5807468404
    3      H       1.3145681335    -1.0089999718     0.6989197648
    4      H       1.3145811422     1.0089946780     0.6989158307
    5      H       2.2062605526     0.0000116701    -0.1792469341
    6      C      -1.3139747021     0.0000018471     0.2261353325
    7      H       0.0373350335    -0.8721747783    -1.2332378340
    8      H       0.0373350006     0.8721727924    -1.2332364371
    9      H      -1.3315294555    -0.6931699560     1.0755382363
   10      H      -2.1048872674    -0.0000037710    -0.5126105550
   11      H      -1.3315222364     0.6931727130     1.0755388361
 ----------------------------------------------------------------

    7    -119.0446945743      8.18E-06 Convergence criterion met
    6    -119.0909409322      4.27E-06 Convergence criterion met
 Total energy in the final basis set = -119.09094093

                    Orbital Energies (a.u.)
 --------------------------------------------------------------

 Alpha MOs
 -- Occupied --
-10.2747 -10.2663 -10.2661  -0.8841  -0.7840  -0.6850  -0.5561  -0.5442
 -0.4927  -0.4616  -0.4192  -0.3859  -0.3826

                    Cartesian Multipole Moments
 -----------------------------------------------------------------
    Charge (ESU x 10^10)
                 0.0000
    Dipole Moment (Debye)
         X       0.1641      Y       0.0000      Z      -0.0736
       Tot       0.1799
    Quadrupole Moments (Debye-Ang)
        XX     -22.1122     XY       0.0001     YY     -21.6906
        XZ      -0.2428     YZ      -0.0000     ZZ     -21.8315

 Total job time:  28.39s(wall), 76.05s(cpu)
        *  Thank you very much for using Q-Chem.  Have a nice day.  *
