 Q-Chem 5.3 (devel), Q-Chem, Inc., Pleasanton, CA (2020)
 Q-Chem 5.3.0 for Intel X86 EM64T Linux

User input:
--------------------------------------------------------------
$rem
   JOBTYPE  sp
   EXCHANGE   omegaB97X-D
   BASIS   6-311+G(2df,2pd)
   max_scf_cycles   250
   geom_opt_max_cycles   1500
   basis2 6-31G*
   scf_algorithm rca_diis
   SYM_IGNORE  TRUE
   print_input   true
   geom_opt_dmax   80
   pop_mulliken false
   XC_GRID 000075000302
$end

$molecule
0 1
C       1.1481583837     0.5361439132     0.2648576854
C       0.0000028914     -0.0000123362     -0.5819000245
H       1.2616676892     1.6220391990     0.1797747842
H       2.0805349880     0.0819352887     -0.0659719573
H       1.0186082714     0.2901907533     1.3192989597
C       -1.1481596034     -0.5361356069     0.2648688126
H       0.2751638815     -0.8304031052     -1.2364956040
H       -0.2751515385     0.8303521657     -1.2365307480
H       -2.0805197179     -0.0818667211     -0.0659270438
H       -1.0185775227     -0.2902194823     1.3193147343
H       -1.2617277833     -1.6220234023     0.1797554202
$end
--------------------------------------------------------------

             Standard Nuclear Orientation (Angstroms)
    I     Atom           X                Y                Z
 ----------------------------------------------------------------
    1      C       1.1481583837     0.5361439132     0.2648576854
    2      C       0.0000028914    -0.0000123362    -0.5819000245
    3      H       1.2616676892     1.6220391990     0.1797747842
    4      H       2.0805349880     0.0819352887    -0.0659719573
    5      H       1.0186082714     0.2901907533     1.3192989597
    6      C      -1.1481596034    -0.5361356069     0.2648688126
    7      H       0.2751638815    -0.8304031052    -1.2364956040
    8      H      -0.2751515385     0.8303521657    -1.2365307480
    9      H      -2.0805197179    -0.0818667211    -0.0659270438
   10      H      -1.0185775227    -0.2902194823     1.3193147343
   11      H      -1.2617277833    -1.6220234023     0.1797554202
 ----------------------------------------------------------------

    7    -119.0891828251      4.29E-06 Convergence criterion met
    6    -119.1326305680      3.94E-06 Convergence criterion met
 Total energy in the final basis set = -119.13263057

                    Orbital Energies (a.u.)
 --------------------------------------------------------------

 Alpha MOs
 -- Occupied --
-10.2715 -10.2633 -10.2633  -0.8811  -0.7766  -0.6775  -0.5444  -0.5273
 -0.4781  -0.4702  -0.4222  -0.4156  -0.3917

                    Cartesian Multipole Moments
 -----------------------------------------------------------------
    Charge (ESU x 10^10)
                -0.0000
    Dipole Moment (Debye)
         X       0.0000      Y       0.0000      Z      -0.0975
       Tot       0.0975
    Quadrupole Moments (Debye-Ang)
        XX     -22.4242     XY      -0.2661     YY     -21.2136
        XZ       0.0000     YZ      -0.0000     ZZ     -21.8179

 Total job time:  27.26s(wall), 74.06s(cpu)
        *  Thank you very much for using Q-Chem.  Have a nice day.  *
