 Q-Chem 5.3 (devel), Q-Chem, Inc., Pleasanton, CA (2020)
 Q-Chem 5.3.0 for Intel X86 EM64T Linux

User input:
--------------------------------------------------------------
$rem
   JOBTYPE  sp
   EXCHANGE   omegaB97X-D
   BASIS   6-311+G(2df,2pd)
   max_scf_cycles   250
   geom_opt_max_cycles   1500
   basis2 6-31G*
   scf_algorithm rca_diis
   SYM_IGNORE  TRUE
   print_input   true
   geom_opt_dmax   80
   pop_mulliken false
   XC_GRID 000075000302
$end

$molecule
0 1
C       1.2524493732     0.2485939198     -0.0750514231
C       -0.0000035689     -0.4962161653     0.3714291413
H       1.3495259463     0.6762403890     -1.0690162915
H       1.9899747192     -0.5578325752     0.0243025521
H       1.5301847751     1.0154624594     0.6487569270
C       -1.2524478512     0.2486003582     -0.0750627848
H       -0.0000086768     -1.0206109267     1.3313013412
H       -0.0000016990     -1.2481534159     -0.4196226068
H       -1.3495378642     0.6761610069     -1.0690642581
H       -1.5301310851     1.0155427384     0.6486866454
H       -1.9900041292     -0.5577871226     0.0243857761
$end
--------------------------------------------------------------

             Standard Nuclear Orientation (Angstroms)
    I     Atom           X                Y                Z
 ----------------------------------------------------------------
    1      C       1.2524493732     0.2485939198    -0.0750514231
    2      C      -0.0000035689    -0.4962161653     0.3714291413
    3      H       1.3495259463     0.6762403890    -1.0690162915
    4      H       1.9899747192    -0.5578325752     0.0243025521
    5      H       1.5301847751     1.0154624594     0.6487569270
    6      C      -1.2524478512     0.2486003582    -0.0750627848
    7      H      -0.0000086768    -1.0206109267     1.3313013412
    8      H      -0.0000016990    -1.2481534159    -0.4196226068
    9      H      -1.3495378642     0.6761610069    -1.0690642581
   10      H      -1.5301310851     1.0155427384     0.6486866454
   11      H      -1.9900041292    -0.5577871226     0.0243857761
 ----------------------------------------------------------------

    7    -119.0710994179      6.52E-06 Convergence criterion met
    5    -119.1149608212      9.07E-06 Convergence criterion met
 Total energy in the final basis set = -119.11496082

                    Orbital Energies (a.u.)
 --------------------------------------------------------------

 Alpha MOs
 -- Occupied --
-10.2765 -10.2628 -10.2628  -0.8854  -0.7785  -0.6763  -0.5474  -0.5128
 -0.5014  -0.4650  -0.4496  -0.3842  -0.3840

                    Cartesian Multipole Moments
 -----------------------------------------------------------------
    Charge (ESU x 10^10)
                -0.0000
    Dipole Moment (Debye)
         X       0.0000      Y      -0.2135      Z      -0.0362
       Tot       0.2165
    Quadrupole Moments (Debye-Ang)
        XX     -23.2047     XY       0.0000     YY     -21.6577
        XZ      -0.0000     YZ      -0.5975     ZZ     -20.8218

 Total job time:  24.65s(wall), 66.68s(cpu)
        *  Thank you very much for using Q-Chem.  Have a nice day.  *
