 Q-Chem 5.3 (devel), Q-Chem, Inc., Pleasanton, CA (2020)
 Q-Chem 5.3.0 for Intel X86 EM64T Linux

User input:
--------------------------------------------------------------
$rem
   JOBTYPE  sp
   EXCHANGE   omegaB97X-D
   BASIS   6-311+G(2df,2pd)
   max_scf_cycles   250
   geom_opt_max_cycles   1500
   basis2 6-31G*
   scf_algorithm rca_diis
   SYM_IGNORE  TRUE
   print_input   true
   geom_opt_dmax   80
   pop_mulliken false
   XC_GRID 000075000302
$end

$molecule
0 1
C       1.2671032543     0.0159872200     0.2595475948
C       -0.0000000184     0.0000003798     -0.5871604167
H       1.3132363303     -0.9105094417     0.9332870051
H       1.2977272764     0.8509499342     0.8741769310
H       2.1645261922     0.0177463915     -0.3599288848
C       -1.2671033148     -0.0159867154     0.2595475877
H       0.0061910510     -0.8738534316     -1.2429803468
H       -0.0061911367     0.8738528564     -1.2429795006
H       -1.2977272327     -0.8509500857     0.8741772489
H       -2.1645259857     -0.0177454617     -0.3599287071
H       -1.3132364766     0.9105090202     0.9332865074
$end
--------------------------------------------------------------

             Standard Nuclear Orientation (Angstroms)
    I     Atom           X                Y                Z
 ----------------------------------------------------------------
    1      C       1.2671032543     0.0159872200     0.2595475948
    2      C      -0.0000000184     0.0000003798    -0.5871604167
    3      H       1.3132363303    -0.9105094417     0.9332870051
    4      H       1.2977272764     0.8509499342     0.8741769310
    5      H       2.1645261922     0.0177463915    -0.3599288848
    6      C      -1.2671033148    -0.0159867154     0.2595475877
    7      H       0.0061910510    -0.8738534316    -1.2429803468
    8      H      -0.0061911367     0.8738528564    -1.2429795006
    9      H      -1.2977272327    -0.8509500857     0.8741772489
   10      H      -2.1645259857    -0.0177454617    -0.3599287071
   11      H      -1.3132364766     0.9105090202     0.9332865074
 ----------------------------------------------------------------

    7    -119.0957328963      4.70E-06 Convergence criterion met
    5    -119.1389463343      9.97E-06 Convergence criterion met
 Total energy in the final basis set = -119.13894633

                    Orbital Energies (a.u.)
 --------------------------------------------------------------

 Alpha MOs
 -- Occupied --
-10.2745 -10.2647 -10.2647  -0.8817  -0.7782  -0.6787  -0.5463  -0.5244
 -0.4830  -0.4642  -0.4189  -0.4171  -0.4070

                    Cartesian Multipole Moments
 -----------------------------------------------------------------
    Charge (ESU x 10^10)
                 0.0000
    Dipole Moment (Debye)
         X      -0.0000      Y       0.0000      Z      -0.0969
       Tot       0.0969
    Quadrupole Moments (Debye-Ang)
        XX     -22.1681     XY       0.2046     YY     -21.3626
        XZ      -0.0000     YZ      -0.0000     ZZ     -21.8510

 Total job time:  24.56s(wall), 66.50s(cpu)
        *  Thank you very much for using Q-Chem.  Have a nice day.  *
