 Q-Chem 5.2 (devel), Q-Chem, Inc., Pleasanton, CA (2019)
 Q-Chem 5.2.2 for Intel X86 EM64T Linux

User input:
--------------------------------------------------------------
$rem
   JOBTYPE  sp
   EXCHANGE   omegaB97X-D
   BASIS   6-311+G(2df,2pd)
   max_scf_cycles   250
   geom_opt_max_cycles   1500
   basis2 6-31G*
   scf_algorithm rca_diis
   SYM_IGNORE  TRUE
   print_input   true
   geom_opt_dmax   80
   pop_mulliken false
   XC_GRID 000075000302
$end

$molecule
0 1
C       1.2640962633     -0.0873695911     0.2651465770
C       0.0000000756     -0.0000001161     -0.5816997092
H       1.4339453122     -0.8532049218     1.0206181524
H       1.1763303228     0.8808138439     0.7683308566
H       2.1520516724     0.0212028468     -0.3584474528
C       -1.2640959746     0.0873693967     0.2651469164
H       -0.2257429719     -0.8467230654     -1.2342765491
H       0.2257424945     0.8467237520     -1.2342755517
H       -1.1763305041     -0.8808137749     0.7683318065
H       -2.1520509095     -0.0212029119     -0.3584478709
H       -1.4339458413     0.8532052079     1.0206178436
--------------------------------------------------------------

             Standard Nuclear Orientation (Angstroms)
    I     Atom           X                Y                Z
 ----------------------------------------------------------------
    1      C       1.2640962633    -0.0873695911     0.2651465770
    2      C       0.0000000756    -0.0000001161    -0.5816997092
    3      H       1.4339453122    -0.8532049218     1.0206181524
    4      H       1.1763303228     0.8808138439     0.7683308566
    5      H       2.1520516724     0.0212028468    -0.3584474528
    6      C      -1.2640959746     0.0873693967     0.2651469164
    7      H      -0.2257429719    -0.8467230654    -1.2342765491
    8      H       0.2257424945     0.8467237520    -1.2342755517
    9      H      -1.1763305041    -0.8808137749     0.7683318065
   10      H      -2.1520509095    -0.0212029119    -0.3584478709
   11      H      -1.4339458413     0.8532052079     1.0206178436
 ----------------------------------------------------------------

    7    -119.0837216674      4.85E-06 Convergence criterion met
    6    -119.1273044964      4.08E-06 Convergence criterion met
 Total energy in the final basis set = -119.12730450

                    Orbital Energies (a.u.)
 --------------------------------------------------------------

 Alpha MOs
 -- Occupied --
-10.2778 -10.2658 -10.2658  -0.8860  -0.7804  -0.6772  -0.5526  -0.5267
 -0.4794  -0.4675  -0.4187  -0.4092  -0.4039

                    Cartesian Multipole Moments
 -----------------------------------------------------------------
    Charge (ESU x 10^10)
                -0.0000
    Dipole Moment (Debye)
         X      -0.0000      Y       0.0000      Z      -0.0624
       Tot       0.0624
    Quadrupole Moments (Debye-Ang)
        XX     -22.0675     XY       0.1157     YY     -21.5502
        XZ       0.0000     YZ      -0.0000     ZZ     -21.8623

 Total job time:  35.19s(wall), 98.23s(cpu)
        *  Thank you very much for using Q-Chem.  Have a nice day.  *
