 Q-Chem 5.2 (devel), Q-Chem, Inc., Pleasanton, CA (2019)
 Q-Chem 5.2.2 for Intel X86 EM64T Linux

User input:
--------------------------------------------------------------
$rem
   JOBTYPE  sp
   EXCHANGE   omegaB97X-D
   BASIS   6-311+G(2df,2pd)
   max_scf_cycles   250
   geom_opt_max_cycles   1500
   basis2 6-31G*
   scf_algorithm rca_diis
   SYM_IGNORE  TRUE
   print_input   true
   geom_opt_dmax   80
   pop_mulliken false
   XC_GRID 000075000302
$end

$molecule
0 1
C       1.1510576080     -0.0000005356     0.4085463539
C       -0.0672735902     -0.0000000324     -0.5930414563
H       1.4195761959     -0.8890486282     0.9787288007
H       1.4195751566     0.8890484676     0.9787279096
H       1.7948278832     0.0000001080     -0.4772791776
C       -1.3690938455     0.0000001073     0.0916798346
H       0.1806044421     -0.8627139417     -1.2159684320
H       0.1806057132     0.8627139509     -1.2159677290
H       -1.1442276420     -0.8192278406     0.7809134394
H       -2.4214226734     0.0000006639     -0.1762082098
H       -1.1442293085     0.8192283467     0.7809136856
--------------------------------------------------------------

             Standard Nuclear Orientation (Angstroms)
    I     Atom           X                Y                Z
 ----------------------------------------------------------------
    1      C       1.1510576080    -0.0000005356     0.4085463539
    2      C      -0.0672735902    -0.0000000324    -0.5930414563
    3      H       1.4195761959    -0.8890486282     0.9787288007
    4      H       1.4195751566     0.8890484676     0.9787279096
    5      H       1.7948278832     0.0000001080    -0.4772791776
    6      C      -1.3690938455     0.0000001073     0.0916798346
    7      H       0.1806044421    -0.8627139417    -1.2159684320
    8      H       0.1806057132     0.8627139509    -1.2159677290
    9      H      -1.1442276420    -0.8192278406     0.7809134394
   10      H      -2.4214226734     0.0000006639    -0.1762082098
   11      H      -1.1442293085     0.8192283467     0.7809136856
 ----------------------------------------------------------------

    7    -119.0482644148      5.24E-06 Convergence criterion met
    6    -119.0932524852      4.62E-06 Convergence criterion met
 Total energy in the final basis set = -119.09325249

                    Orbital Energies (a.u.)
 --------------------------------------------------------------

 Alpha MOs
 -- Occupied --
-10.2852 -10.2687 -10.2619  -0.8947  -0.7843  -0.6799  -0.5486  -0.5422
 -0.4904  -0.4605  -0.4124  -0.3991  -0.3982

                    Cartesian Multipole Moments
 -----------------------------------------------------------------
    Charge (ESU x 10^10)
                -0.0000
    Dipole Moment (Debye)
         X       0.1315      Y       0.0000      Z      -0.0718
       Tot       0.1498
    Quadrupole Moments (Debye-Ang)
        XX     -21.9553     XY      -0.0000     YY     -21.6647
        XZ       0.0947     YZ      -0.0000     ZZ     -22.0709

 Total job time:  36.18s(wall), 100.66s(cpu)
        *  Thank you very much for using Q-Chem.  Have a nice day.  *
