 Q-Chem 5.3 (devel), Q-Chem, Inc., Pleasanton, CA (2020)
 Q-Chem 5.3.0 for Intel X86 EM64T Linux

User input:
--------------------------------------------------------------
$rem
   JOBTYPE  sp
   EXCHANGE   omegaB97X-D
   BASIS   6-311+G(2df,2pd)
   max_scf_cycles   250
   geom_opt_max_cycles   1500
   basis2 6-31G*
   scf_algorithm rca_diis
   SYM_IGNORE  TRUE
   print_input   true
   geom_opt_dmax   80
   pop_mulliken false
   XC_GRID 000075000302
$end

$molecule
0 1
C       0.9144027704     0.8771811116     0.2508598867
C       0.0000074072     -0.0000192946     -0.5959727812
H       1.9833617794     0.6825920966     0.0956013544
H       0.6939178844     0.6810265235     1.2961741674
H       0.7299226168     1.9372638380     0.0739010530
C       -0.9144108379     -0.8771654871     0.2508908818
H       0.4660529555     -0.7425295529     -1.2480760293
H       -0.4660182247     0.7424485836     -1.2481368747
H       -0.6938347092     -0.6810612547     1.2961967447
H       -0.7300370395     -1.9372605866     0.0738959814
H       -1.9833646629     -0.6824753114     0.0957106348
$end
--------------------------------------------------------------

             Standard Nuclear Orientation (Angstroms)
    I     Atom           X                Y                Z
 ----------------------------------------------------------------
    1      C       0.9144027704     0.8771811116     0.2508598867
    2      C       0.0000074072    -0.0000192946    -0.5959727812
    3      H       1.9833617794     0.6825920966     0.0956013544
    4      H       0.6939178844     0.6810265235     1.2961741674
    5      H       0.7299226168     1.9372638380     0.0739010530
    6      C      -0.9144108379    -0.8771654871     0.2508908818
    7      H       0.4660529555    -0.7425295529    -1.2480760293
    8      H      -0.4660182247     0.7424485836    -1.2481368747
    9      H      -0.6938347092    -0.6810612547     1.2961967447
   10      H      -0.7300370395    -1.9372605866     0.0738959814
   11      H      -1.9833646629    -0.6824753114     0.0957106348
 ----------------------------------------------------------------

    7    -119.0832685932      4.29E-06 Convergence criterion met
    6    -119.1271052719      4.14E-06 Convergence criterion met
 Total energy in the final basis set = -119.12710527

                    Orbital Energies (a.u.)
 --------------------------------------------------------------

 Alpha MOs
 -- Occupied --
-10.2713 -10.2641 -10.2641  -0.8829  -0.7767  -0.6788  -0.5456  -0.5327
 -0.4719  -0.4717  -0.4201  -0.4175  -0.3912

                    Cartesian Multipole Moments
 -----------------------------------------------------------------
    Charge (ESU x 10^10)
                -0.0000
    Dipole Moment (Debye)
         X       0.0000      Y      -0.0000      Z      -0.0576
       Tot       0.0576
    Quadrupole Moments (Debye-Ang)
        XX     -22.1087     XY      -0.4908     YY     -21.3417
        XZ       0.0000     YZ      -0.0000     ZZ     -22.0448

 Total job time:  27.59s(wall), 74.31s(cpu)
        *  Thank you very much for using Q-Chem.  Have a nice day.  *
