 Q-Chem 5.3 (devel), Q-Chem, Inc., Pleasanton, CA (2020)
 Q-Chem 5.3.0 for Intel X86 EM64T Linux

User input:
--------------------------------------------------------------
$rem
   JOBTYPE  sp
   EXCHANGE   omegaB97X-D
   BASIS   6-311+G(2df,2pd)
   max_scf_cycles   250
   geom_opt_max_cycles   1500
   basis2 6-31G*
   scf_algorithm rca_diis
   SYM_IGNORE  TRUE
   print_input   true
   geom_opt_dmax   80
   pop_mulliken false
   XC_GRID 000075000302
$end

$molecule
0 1
C       1.2766998407     0.0000001508     0.1586529533
C       -0.0000000917     -0.0000002330     -0.5313974253
H       1.1111753015     -0.8259648216     0.8576220774
H       1.1111757616     0.8259650902     0.8576221958
H       2.2843245727     -0.0000002291     -0.2418347021
C       -1.2766997365     0.0000001299     0.1586526963
H       0.0000002778     -0.8653924752     -1.1958414019
H       -0.0000001874     0.8653923247     -1.1958409898
H       -1.1111754250     -0.8259648467     0.8576218626
H       -2.2843247788     0.0000006524     -0.2418344087
H       -1.1111755955     0.8259649238     0.8576221613
$end
--------------------------------------------------------------

             Standard Nuclear Orientation (Angstroms)
    I     Atom           X                Y                Z
 ----------------------------------------------------------------
    1      C       1.2766998407     0.0000001508     0.1586529533
    2      C      -0.0000000917    -0.0000002330    -0.5313974253
    3      H       1.1111753015    -0.8259648216     0.8576220774
    4      H       1.1111757616     0.8259650902     0.8576221958
    5      H       2.2843245727    -0.0000002291    -0.2418347021
    6      C      -1.2766997365     0.0000001299     0.1586526963
    7      H       0.0000002778    -0.8653924752    -1.1958414019
    8      H      -0.0000001874     0.8653923247    -1.1958409898
    9      H      -1.1111754250    -0.8259648467     0.8576218626
   10      H      -2.2843247788     0.0000006524    -0.2418344087
   11      H      -1.1111755955     0.8259649238     0.8576221613
 ----------------------------------------------------------------

    7    -119.0541710400      4.53E-06 Convergence criterion met
    6    -119.0997888041      4.16E-06 Convergence criterion met
 Total energy in the final basis set = -119.09978880

                    Orbital Energies (a.u.)
 --------------------------------------------------------------

 Alpha MOs
 -- Occupied --
-10.2660 -10.2660 -10.2650  -0.9108  -0.7908  -0.6746  -0.5597  -0.5566
 -0.4809  -0.4760  -0.4476  -0.3859  -0.3818

                    Cartesian Multipole Moments
 -----------------------------------------------------------------
    Charge (ESU x 10^10)
                 0.0000
    Dipole Moment (Debye)
         X      -0.0000      Y       0.0000      Z      -0.0198
       Tot       0.0198
    Quadrupole Moments (Debye-Ang)
        XX     -20.6667     XY      -0.0000     YY     -22.0689
        XZ      -0.0000     YZ       0.0000     ZZ     -22.8110

 Total job time:  27.82s(wall), 75.53s(cpu)
        *  Thank you very much for using Q-Chem.  Have a nice day.  *
