 Q-Chem 5.3 (devel), Q-Chem, Inc., Pleasanton, CA (2020)
 Q-Chem 5.3.0 for Intel X86 EM64T Linux

User input:
--------------------------------------------------------------
$rem
   JOBTYPE  sp
   EXCHANGE   omegaB97X-D
   BASIS   6-311+G(2df,2pd)
   max_scf_cycles   250
   geom_opt_max_cycles   1500
   basis2 6-31G*
   scf_algorithm rca_diis
   SYM_IGNORE  TRUE
   print_input   true
   geom_opt_dmax   80
   pop_mulliken false
   XC_GRID 000075000302
$end

$molecule
0 1
C       1.3025200536     0.0000030910     0.2329275664
C       0.0361745707     0.0000016707     -0.5836308002
H       1.3217240086     -0.7447990394     1.0358292191
H       1.3217148293     0.7448022752     1.0358316103
H       2.1218068863     -0.0000097030     -0.4773569702
C       -1.2316820839     -0.0000010239     0.2928279561
H       -0.0282822254     -0.8729233381     -1.2375446067
H       -0.0282825274     0.8729255974     -1.2375461433
H       -1.3091945511     -0.9831354790     0.7533306865
H       -2.1972977188     0.0000032072     -0.2269536513
H       -1.3092013024     0.9831334078     0.7533301523
$end
--------------------------------------------------------------

             Standard Nuclear Orientation (Angstroms)
    I     Atom           X                Y                Z
 ----------------------------------------------------------------
    1      C       1.3025200536     0.0000030910     0.2329275664
    2      C       0.0361745707     0.0000016707    -0.5836308002
    3      H       1.3217240086    -0.7447990394     1.0358292191
    4      H       1.3217148293     0.7448022752     1.0358316103
    5      H       2.1218068863    -0.0000097030    -0.4773569702
    6      C      -1.2316820839    -0.0000010239     0.2928279561
    7      H      -0.0282822254    -0.8729233381    -1.2375446067
    8      H      -0.0282825274     0.8729255974    -1.2375461433
    9      H      -1.3091945511    -0.9831354790     0.7533306865
   10      H      -2.1972977188     0.0000032072    -0.2269536513
   11      H      -1.3092013024     0.9831334078     0.7533301523
 ----------------------------------------------------------------

    7    -119.0704338861      6.58E-06 Convergence criterion met
    6    -119.1151527214      4.07E-06 Convergence criterion met
 Total energy in the final basis set = -119.11515272

                    Orbital Energies (a.u.)
 --------------------------------------------------------------

 Alpha MOs
 -- Occupied --
-10.2744 -10.2658 -10.2657  -0.8828  -0.7809  -0.6816  -0.5520  -0.5357
 -0.4896  -0.4623  -0.4192  -0.3980  -0.3931

                    Cartesian Multipole Moments
 -----------------------------------------------------------------
    Charge (ESU x 10^10)
                 0.0000
    Dipole Moment (Debye)
         X      -0.1184      Y      -0.0000      Z      -0.0794
       Tot       0.1426
    Quadrupole Moments (Debye-Ang)
        XX     -22.1413     XY      -0.0000     YY     -21.5463
        XZ       0.1392     YZ       0.0000     ZZ     -21.8332

 Total job time:  27.67s(wall), 74.60s(cpu)
        *  Thank you very much for using Q-Chem.  Have a nice day.  *
