 Q-Chem 5.3 (devel), Q-Chem, Inc., Pleasanton, CA (2020)
 Q-Chem 5.3.0 for Intel X86 EM64T Linux

User input:
--------------------------------------------------------------
$rem
   JOBTYPE  sp
   EXCHANGE   omegaB97X-D
   BASIS   6-311+G(2df,2pd)
   max_scf_cycles   250
   geom_opt_max_cycles   1500
   basis2 6-31G*
   scf_algorithm rca_diis
   SYM_IGNORE  TRUE
   print_input   true
   geom_opt_dmax   80
   pop_mulliken false
   XC_GRID 000075000302
$end

$molecule
0 1
C       1.2569318649     0.2447776758     -0.0090221113
C       -0.0000033185     -0.6038363081     0.1416191524
H       1.6886443815     0.4168558914     -0.9920445087
H       1.9803614738     -0.3285511785     0.5825987832
H       1.1412969525     1.2115365195     0.4820264250
C       -1.2569309594     0.2447864002     -0.0090305257
H       -0.0000080887     -1.3876623935     0.9041903288
H       -0.0000016324     -1.0977951191     -0.8318399074
H       -1.6886733662     0.4167952298     -0.9920527726
H       -1.1412662332     1.2115797163     0.4819422653
H       -1.9803511350     -0.3284857677     0.5826578899
$end
--------------------------------------------------------------

             Standard Nuclear Orientation (Angstroms)
    I     Atom           X                Y                Z
 ----------------------------------------------------------------
    1      C       1.2569318649     0.2447776758    -0.0090221113
    2      C      -0.0000033185    -0.6038363081     0.1416191524
    3      H       1.6886443815     0.4168558914    -0.9920445087
    4      H       1.9803614738    -0.3285511785     0.5825987832
    5      H       1.1412969525     1.2115365195     0.4820264250
    6      C      -1.2569309594     0.2447864002    -0.0090305257
    7      H      -0.0000080887    -1.3876623935     0.9041903288
    8      H      -0.0000016324    -1.0977951191    -0.8318399074
    9      H      -1.6886733662     0.4167952298    -0.9920527726
   10      H      -1.1412662332     1.2115797163     0.4819422653
   11      H      -1.9803511350    -0.3284857677     0.5826578899
 ----------------------------------------------------------------

    7    -119.0751056906      5.14E-06 Convergence criterion met
    5    -119.1190074902      9.47E-06 Convergence criterion met
 Total energy in the final basis set = -119.11900749

                    Orbital Energies (a.u.)
 --------------------------------------------------------------

 Alpha MOs
 -- Occupied --
-10.2740 -10.2631 -10.2631  -0.8840  -0.7774  -0.6771  -0.5472  -0.5234
 -0.4945  -0.4629  -0.4360  -0.3960  -0.3860

                    Cartesian Multipole Moments
 -----------------------------------------------------------------
    Charge (ESU x 10^10)
                -0.0000
    Dipole Moment (Debye)
         X       0.0000      Y      -0.1884      Z      -0.0683
       Tot       0.2004
    Quadrupole Moments (Debye-Ang)
        XX     -22.7431     XY       0.0000     YY     -21.6758
        XZ      -0.0000     YZ      -0.5390     ZZ     -21.1683

 Total job time:  26.68s(wall), 70.90s(cpu)
        *  Thank you very much for using Q-Chem.  Have a nice day.  *
