 Q-Chem 5.3 (devel), Q-Chem, Inc., Pleasanton, CA (2020)
 Q-Chem 5.3.0 for Intel X86 EM64T Linux

User input:
--------------------------------------------------------------
$rem
   JOBTYPE  sp
   EXCHANGE   omegaB97X-D
   BASIS   6-311+G(2df,2pd)
   max_scf_cycles   250
   geom_opt_max_cycles   1500
   basis2 6-31G*
   scf_algorithm rca_diis
   SYM_IGNORE  TRUE
   print_input   true
   geom_opt_dmax   80
   pop_mulliken false
   XC_GRID 000075000302
$end

$molecule
0 1
C       1.1358413061     -0.5617424322     0.2639412406
C       0.0000025662     0.0000126633     -0.5828289555
H       2.0519118006     -0.0189701272     0.0382452916
H       1.3237769839     -1.6226839001     0.0671373946
H       0.9383921125     -0.4439971111     1.3299018523
C       -1.1358435658     0.5617354514     0.2639530290
H       -0.2889186544     -0.8257602990     -1.2373357160
H       0.2889289986     0.8258117515     -1.2373014320
H       -1.3238446921     1.6226591440     0.0671204488
H       -0.9383575237     0.4440299561     1.3299112778
H       -2.0518893926     0.0189055693     0.0383005879
$end
--------------------------------------------------------------

             Standard Nuclear Orientation (Angstroms)
    I     Atom           X                Y                Z
 ----------------------------------------------------------------
    1      C       1.1358413061    -0.5617424322     0.2639412406
    2      C       0.0000025662     0.0000126633    -0.5828289555
    3      H       2.0519118006    -0.0189701272     0.0382452916
    4      H       1.3237769839    -1.6226839001     0.0671373946
    5      H       0.9383921125    -0.4439971111     1.3299018523
    6      C      -1.1358435658     0.5617354514     0.2639530290
    7      H      -0.2889186544    -0.8257602990    -1.2373357160
    8      H       0.2889289986     0.8258117515    -1.2373014320
    9      H      -1.3238446921     1.6226591440     0.0671204488
   10      H      -0.9383575237     0.4440299561     1.3299112778
   11      H      -2.0518893926     0.0189055693     0.0383005879
 ----------------------------------------------------------------

    7    -119.0879917271      4.25E-06 Convergence criterion met
    6    -119.1315144199      3.97E-06 Convergence criterion met
 Total energy in the final basis set = -119.13151442

                    Orbital Energies (a.u.)
 --------------------------------------------------------------

 Alpha MOs
 -- Occupied --
-10.2713 -10.2632 -10.2632  -0.8812  -0.7766  -0.6776  -0.5445  -0.5280
 -0.4773  -0.4703  -0.4224  -0.4160  -0.3907

                    Cartesian Multipole Moments
 -----------------------------------------------------------------
    Charge (ESU x 10^10)
                -0.0000
    Dipole Moment (Debye)
         X       0.0000      Y      -0.0000      Z      -0.0928
       Tot       0.0928
    Quadrupole Moments (Debye-Ang)
        XX     -22.4263     XY       0.2820     YY     -21.2244
        XZ       0.0000     YZ       0.0000     ZZ     -21.8169

 Total job time:  27.87s(wall), 75.07s(cpu)
        *  Thank you very much for using Q-Chem.  Have a nice day.  *
