 Q-Chem 5.3 (devel), Q-Chem, Inc., Pleasanton, CA (2020)
 Q-Chem 5.3.0 for Intel X86 EM64T Linux

User input:
--------------------------------------------------------------
$rem
   JOBTYPE  sp
   EXCHANGE   omegaB97X-D
   BASIS   6-311+G(2df,2pd)
   max_scf_cycles   250
   geom_opt_max_cycles   1500
   basis2 6-31G*
   scf_algorithm rca_diis
   SYM_IGNORE  TRUE
   print_input   true
   geom_opt_dmax   80
   pop_mulliken false
   XC_GRID 000075000302
$end

$molecule
0 1
C       1.2669622299     -0.0067751673     0.2590526964
C       0.0000000055     0.0420058784     -0.5866114240
H       1.3035629529     -0.8333015368     0.8464920314
H       1.3066444274     0.9267124727     0.9617070517
H       2.1643498491     0.0110334781     -0.3602216294
C       -1.2669622224     -0.0067746129     0.2590527505
H       -0.0000000735     -0.9919454397     -1.3717654591
H       -0.0000000110     0.7546017039     -1.1146383036
H       -1.3035631373     -0.8333022449     0.8464928993
H       -2.1643498747     0.0110346198     -0.3602215849
H       -1.3066442065     0.9267115148     0.9617059908
$end
--------------------------------------------------------------

             Standard Nuclear Orientation (Angstroms)
    I     Atom           X                Y                Z
 ----------------------------------------------------------------
    1      C       1.2669622299    -0.0067751673     0.2590526964
    2      C       0.0000000055     0.0420058784    -0.5866114240
    3      H       1.3035629529    -0.8333015368     0.8464920314
    4      H       1.3066444274     0.9267124727     0.9617070517
    5      H       2.1643498491     0.0110334781    -0.3602216294
    6      C      -1.2669622224    -0.0067746129     0.2590527505
    7      H      -0.0000000735    -0.9919454397    -1.3717654591
    8      H      -0.0000000110     0.7546017039    -1.1146383036
    9      H      -1.3035631373    -0.8333022449     0.8464928993
   10      H      -2.1643498747     0.0110346198    -0.3602215849
   11      H      -1.3066442065     0.9267115148     0.9617059908
 ----------------------------------------------------------------

    7    -119.0311256452      5.87E-06 Convergence criterion met
    6    -119.0770704286      4.21E-06 Convergence criterion met
 Total energy in the final basis set = -119.07707043

                    Orbital Energies (a.u.)
 --------------------------------------------------------------

 Alpha MOs
 -- Occupied --
-10.2721 -10.2660 -10.2660  -0.8876  -0.7802  -0.6959  -0.5443  -0.5217
 -0.4932  -0.4561  -0.4411  -0.4205  -0.3878

                    Cartesian Multipole Moments
 -----------------------------------------------------------------
    Charge (ESU x 10^10)
                -0.0000
    Dipole Moment (Debye)
         X      -0.0000      Y       0.0673      Z      -0.0024
       Tot       0.0673
    Quadrupole Moments (Debye-Ang)
        XX     -22.0525     XY      -0.0000     YY     -21.3982
        XZ      -0.0000     YZ      -0.3786     ZZ     -22.0129

 Total job time:  26.89s(wall), 73.23s(cpu)
        *  Thank you very much for using Q-Chem.  Have a nice day.  *
