 Q-Chem 5.2 (devel), Q-Chem, Inc., Pleasanton, CA (2019)
 Q-Chem 5.2.2 for Intel X86 EM64T Linux

User input:
--------------------------------------------------------------
$rem
   JOBTYPE  sp
   EXCHANGE   omegaB97X-D
   BASIS   6-311+G(2df,2pd)
   max_scf_cycles   250
   geom_opt_max_cycles   1500
   basis2 6-31G*
   scf_algorithm rca_diis
   SYM_IGNORE  TRUE
   print_input   true
   geom_opt_dmax   80
   pop_mulliken false
   XC_GRID 000075000302
$end

$molecule
0 1
C       1.0956717846     -0.6365244038     0.2604195989
C       0.0000031973     0.0000139773     -0.5863668882
H       1.8991050163     0.0841936093     0.3972850123
H       1.5286581719     -1.5296601880     -0.2038620294
H       0.7297458818     -0.9111421827     1.2502751507
C       -1.0956754833     0.6365161815     0.2604340432
H       -0.3295552530     -0.8107245827     -1.2404691042
H       0.3295689664     0.8107818409     -1.2404302149
H       -1.5287355322     1.5296075546     -0.2038621015
H       -0.7297290612     0.9111853505     1.2502678306
H       -1.8990577492     -0.0842464909     0.3973537215
--------------------------------------------------------------

             Standard Nuclear Orientation (Angstroms)
    I     Atom           X                Y                Z
 ----------------------------------------------------------------
    1      C       1.0956717846    -0.6365244038     0.2604195989
    2      C       0.0000031973     0.0000139773    -0.5863668882
    3      H       1.8991050163     0.0841936093     0.3972850123
    4      H       1.5286581719    -1.5296601880    -0.2038620294
    5      H       0.7297458818    -0.9111421827     1.2502751507
    6      C      -1.0956754833     0.6365161815     0.2604340432
    7      H      -0.3295552530    -0.8107245827    -1.2404691042
    8      H       0.3295689664     0.8107818409    -1.2404302149
    9      H      -1.5287355322     1.5296075546    -0.2038621015
   10      H      -0.7297290612     0.9111853505     1.2502678306
   11      H      -1.8990577492    -0.0842464909     0.3973537215
 ----------------------------------------------------------------

    7    -119.0919554705      4.47E-06 Convergence criterion met
    6    -119.1352904479      4.01E-06 Convergence criterion met
 Total energy in the final basis set = -119.13529045

                    Orbital Energies (a.u.)
 --------------------------------------------------------------

 Alpha MOs
 -- Occupied --
-10.2721 -10.2646 -10.2646  -0.8816  -0.7771  -0.6776  -0.5453  -0.5266
 -0.4805  -0.4687  -0.4213  -0.4187  -0.3925

                    Cartesian Multipole Moments
 -----------------------------------------------------------------
    Charge (ESU x 10^10)
                 0.0000
    Dipole Moment (Debye)
         X       0.0000      Y      -0.0000      Z      -0.0625
       Tot       0.0625
    Quadrupole Moments (Debye-Ang)
        XX     -22.3298     XY       0.2119     YY     -21.2589
        XZ       0.0000     YZ       0.0000     ZZ     -21.8552

 Total job time:  40.12s(wall), 111.11s(cpu)
        *  Thank you very much for using Q-Chem.  Have a nice day.  *
