 Q-Chem 5.2 (devel), Q-Chem, Inc., Pleasanton, CA (2019)
 Q-Chem 5.2.2 for Intel X86 EM64T Linux

User input:
--------------------------------------------------------------
$rem
   JOBTYPE  sp
   EXCHANGE   omegaB97X-D
   BASIS   6-311+G(2df,2pd)
   max_scf_cycles   250
   geom_opt_max_cycles   1500
   basis2 6-31G*
   scf_algorithm rca_diis
   SYM_IGNORE  TRUE
   print_input   true
   geom_opt_dmax   80
   pop_mulliken false
   XC_GRID 000075000302
$end

$molecule
0 1
C       1.2569318952     0.2447773169     -0.0090239519
C       -0.0000033186     -0.6038400294     0.1416224429
H       1.6886498767     0.4168504415     -0.9920600177
H       1.9803633795     -0.3285532247     0.5826116512
H       1.1412864618     1.2115525567     0.4820225200
C       -1.2569309895     0.2447860419     -0.0090323669
H       -0.0000080891     -1.3876641003     0.9042004856
H       -0.0000016324     -1.0978060577     -0.8318365778
H       -1.6886788609     0.4167897802     -0.9920682800
H       -1.1412557432     1.2115957518     0.4819383578
H       -1.9803530401     -0.3284878110     0.5826707556
--------------------------------------------------------------

             Standard Nuclear Orientation (Angstroms)
    I     Atom           X                Y                Z
 ----------------------------------------------------------------
    1      C       1.2569318952     0.2447773169    -0.0090239519
    2      C      -0.0000033186    -0.6038400294     0.1416224429
    3      H       1.6886498767     0.4168504415    -0.9920600177
    4      H       1.9803633795    -0.3285532247     0.5826116512
    5      H       1.1412864618     1.2115525567     0.4820225200
    6      C      -1.2569309895     0.2447860419    -0.0090323669
    7      H      -0.0000080891    -1.3876641003     0.9042004856
    8      H      -0.0000016324    -1.0978060577    -0.8318365778
    9      H      -1.6886788609     0.4167897802    -0.9920682800
   10      H      -1.1412557432     1.2115957518     0.4819383578
   11      H      -1.9803530401    -0.3284878110     0.5826707556
 ----------------------------------------------------------------

    7    -119.0751057781      5.14E-06 Convergence criterion met
    5    -119.1190070752      9.47E-06 Convergence criterion met
 Total energy in the final basis set = -119.11900708

                    Orbital Energies (a.u.)
 --------------------------------------------------------------

 Alpha MOs
 -- Occupied --
-10.2740 -10.2631 -10.2631  -0.8840  -0.7774  -0.6771  -0.5472  -0.5234
 -0.4945  -0.4629  -0.4360  -0.3960  -0.3860

                    Cartesian Multipole Moments
 -----------------------------------------------------------------
    Charge (ESU x 10^10)
                -0.0000
    Dipole Moment (Debye)
         X       0.0000      Y      -0.1884      Z      -0.0683
       Tot       0.2004
    Quadrupole Moments (Debye-Ang)
        XX     -22.7432     XY       0.0000     YY     -21.6759
        XZ      -0.0000     YZ      -0.5390     ZZ     -21.1684

 Total job time:  37.01s(wall), 101.80s(cpu)
        *  Thank you very much for using Q-Chem.  Have a nice day.  *
