 Q-Chem 5.3 (devel), Q-Chem, Inc., Pleasanton, CA (2020)
 Q-Chem 5.3.0 for Intel X86 EM64T Linux

User input:
--------------------------------------------------------------
$rem
   JOBTYPE  sp
   EXCHANGE   omegaB97X-D
   BASIS   6-311+G(2df,2pd)
   max_scf_cycles   250
   geom_opt_max_cycles   1500
   basis2 6-31G*
   scf_algorithm rca_diis
   SYM_IGNORE  TRUE
   print_input   true
   geom_opt_dmax   80
   pop_mulliken false
   XC_GRID 000075000302
$end

$molecule
0 1
C       1.2554708075     -0.0000001033     0.3105009159
C       0.0000000332     0.0000001398     -0.6162042837
H       1.3896058262     -0.8933744960     0.9212966773
H       1.3896056258     0.8933743845     0.9212965990
H       2.0819577483     0.0000001149     -0.4055874241
C       -1.2554708802     -0.0000001035     0.3105010433
H       -0.0000001468     -0.8771850010     -1.2688820631
H       0.0000000102     0.8771850894     -1.2688823207
H       -1.3896057935     -0.8933745055     0.9212967790
H       -2.0819575523     0.0000007065     -0.4055875419
H       -1.3896057390     0.8933744401     0.9212966379
$end
--------------------------------------------------------------

             Standard Nuclear Orientation (Angstroms)
    I     Atom           X                Y                Z
 ----------------------------------------------------------------
    1      C       1.2554708075    -0.0000001033     0.3105009159
    2      C       0.0000000332     0.0000001398    -0.6162042837
    3      H       1.3896058262    -0.8933744960     0.9212966773
    4      H       1.3896056258     0.8933743845     0.9212965990
    5      H       2.0819577483     0.0000001149    -0.4055874241
    6      C      -1.2554708802    -0.0000001035     0.3105010433
    7      H      -0.0000001468    -0.8771850010    -1.2688820631
    8      H       0.0000000102     0.8771850894    -1.2688823207
    9      H      -1.3896057935    -0.8933745055     0.9212967790
   10      H      -2.0819575523     0.0000007065    -0.4055875419
   11      H      -1.3896057390     0.8933744401     0.9212966379
 ----------------------------------------------------------------

    7    -119.0929762547      1.56E-06 Convergence criterion met
    5    -119.1357810131      8.48E-06 Convergence criterion met
 Total energy in the final basis set = -119.13578101

                    Orbital Energies (a.u.)
 --------------------------------------------------------------

 Alpha MOs
 -- Occupied --
-10.2823 -10.2651 -10.2651  -0.8724  -0.7735  -0.6810  -0.5411  -0.5097
 -0.4862  -0.4676  -0.4314  -0.4179  -0.3861

                    Cartesian Multipole Moments
 -----------------------------------------------------------------
    Charge (ESU x 10^10)
                -0.0000
    Dipole Moment (Debye)
         X       0.0000      Y       0.0000      Z      -0.1620
       Tot       0.1620
    Quadrupole Moments (Debye-Ang)
        XX     -22.8070     XY      -0.0000     YY     -21.1728
        XZ       0.0000     YZ      -0.0000     ZZ     -21.4433

 Total job time:  25.07s(wall), 67.39s(cpu)
        *  Thank you very much for using Q-Chem.  Have a nice day.  *
