 Q-Chem 5.3 (devel), Q-Chem, Inc., Pleasanton, CA (2020)
 Q-Chem 5.3.0 for Intel X86 EM64T Linux

User input:
--------------------------------------------------------------
$rem
   JOBTYPE  sp
   EXCHANGE   omegaB97X-D
   BASIS   6-311+G(2df,2pd)
   max_scf_cycles   250
   geom_opt_max_cycles   1500
   basis2 6-31G*
   scf_algorithm rca_diis
   SYM_IGNORE  TRUE
   print_input   true
   geom_opt_dmax   80
   pop_mulliken false
   XC_GRID 000075000302
$end

$molecule
0 1
C       1.2560769169     -0.2470586146     -0.0236726753
C       -0.0000029933     0.5894138268     0.1891509869
H       2.0107509004     0.3739367352     0.4736372164
H       1.6116428638     -0.4696532169     -1.0266356146
H       1.2034011246     -1.1846517557     0.5306434413
C       -1.2560780592     -0.2470646422     -0.0236815355
H       -0.0000014680     1.1396070744     -0.7536191102
H       -0.0000079072     1.3258861760     0.9976033181
H       -2.0107487909     0.3738728513     0.4737037314
H       -1.2033572244     -1.1846978177     0.5305633604
H       -1.6116754232     -0.4695899504     -1.0266481001
$end
--------------------------------------------------------------

             Standard Nuclear Orientation (Angstroms)
    I     Atom           X                Y                Z
 ----------------------------------------------------------------
    1      C       1.2560769169    -0.2470586146    -0.0236726753
    2      C      -0.0000029933     0.5894138268     0.1891509869
    3      H       2.0107509004     0.3739367352     0.4736372164
    4      H       1.6116428638    -0.4696532169    -1.0266356146
    5      H       1.2034011246    -1.1846517557     0.5306434413
    6      C      -1.2560780592    -0.2470646422    -0.0236815355
    7      H      -0.0000014680     1.1396070744    -0.7536191102
    8      H      -0.0000079072     1.3258861760     0.9976033181
    9      H      -2.0107487909     0.3738728513     0.4737037314
   10      H      -1.2033572244    -1.1846978177     0.5305633604
   11      H      -1.6116754232    -0.4695899504    -1.0266481001
 ----------------------------------------------------------------

    7    -119.0758771016      5.44E-06 Convergence criterion met
    5    -119.1196955798      9.33E-06 Convergence criterion met
 Total energy in the final basis set = -119.11969558

                    Orbital Energies (a.u.)
 --------------------------------------------------------------

 Alpha MOs
 -- Occupied --
-10.2749 -10.2632 -10.2632  -0.8842  -0.7778  -0.6769  -0.5474  -0.5210
 -0.4967  -0.4634  -0.4378  -0.3934  -0.3873

                    Cartesian Multipole Moments
 -----------------------------------------------------------------
    Charge (ESU x 10^10)
                -0.0000
    Dipole Moment (Debye)
         X       0.0000      Y       0.2040      Z      -0.0672
       Tot       0.2147
    Quadrupole Moments (Debye-Ang)
        XX     -22.8093     XY      -0.0000     YY     -21.6815
        XZ      -0.0000     YZ       0.5539     ZZ     -21.1045

 Total job time:  24.82s(wall), 67.08s(cpu)
        *  Thank you very much for using Q-Chem.  Have a nice day.  *
