 Q-Chem 5.3 (devel), Q-Chem, Inc., Pleasanton, CA (2020)
 Q-Chem 5.3.0 for Intel X86 EM64T Linux

User input:
--------------------------------------------------------------
$rem
   JOBTYPE  sp
   EXCHANGE   omegaB97X-D
   BASIS   6-311+G(2df,2pd)
   max_scf_cycles   250
   geom_opt_max_cycles   1500
   basis2 6-31G*
   scf_algorithm rca_diis
   SYM_IGNORE  TRUE
   print_input   true
   geom_opt_dmax   80
   pop_mulliken false
   XC_GRID 000075000302
$end

$molecule
0 1
C       1.2719817824     0.0000010729     0.2023896029
C       0.0000000126     0.0000021897     -0.6735954744
H       1.2702430449     -0.7860603011     0.9641975550
H       1.2702409968     0.7860609892     0.9641988894
H       2.1125939876     -0.0000043252     -0.4863724850
C       -1.2719818501     0.0000014670     0.2023898535
H       -0.0000002478     -0.9844775115     -1.1370915884
H       -0.0000002327     0.9844808357     -1.1370938736
H       -1.2702435461     -0.7860611556     0.9641965155
H       -2.1125941972     -0.0000049009     -0.4863720973
H       -1.2702398110     0.7860623059     0.9641981212
$end
--------------------------------------------------------------

             Standard Nuclear Orientation (Angstroms)
    I     Atom           X                Y                Z
 ----------------------------------------------------------------
    1      C       1.2719817824     0.0000010729     0.2023896029
    2      C       0.0000000126     0.0000021897    -0.6735954744
    3      H       1.2702430449    -0.7860603011     0.9641975550
    4      H       1.2702409968     0.7860609892     0.9641988894
    5      H       2.1125939876    -0.0000043252    -0.4863724850
    6      C      -1.2719818501     0.0000014670     0.2023898535
    7      H      -0.0000002478    -0.9844775115    -1.1370915884
    8      H      -0.0000002327     0.9844808357    -1.1370938736
    9      H      -1.2702435461    -0.7860611556     0.9641965155
   10      H      -2.1125941972    -0.0000049009    -0.4863720973
   11      H      -1.2702398110     0.7860623059     0.9641981212
 ----------------------------------------------------------------

    7    -119.0709258802      5.75E-06 Convergence criterion met
    5    -119.1152682284      8.34E-06 Convergence criterion met
 Total energy in the final basis set = -119.11526823

                    Orbital Energies (a.u.)
 --------------------------------------------------------------

 Alpha MOs
 -- Occupied --
-10.2778 -10.2647 -10.2647  -0.8814  -0.7758  -0.6777  -0.5550  -0.5251
 -0.5152  -0.4327  -0.4125  -0.4055  -0.4052

                    Cartesian Multipole Moments
 -----------------------------------------------------------------
    Charge (ESU x 10^10)
                -0.0000
    Dipole Moment (Debye)
         X      -0.0000      Y      -0.0000      Z       0.1030
       Tot       0.1030
    Quadrupole Moments (Debye-Ang)
        XX     -22.9512     XY       0.0000     YY     -21.8268
        XZ       0.0000     YZ       0.0000     ZZ     -21.3473

 Total job time:  24.85s(wall), 67.09s(cpu)
        *  Thank you very much for using Q-Chem.  Have a nice day.  *
