 Q-Chem 5.3 (devel), Q-Chem, Inc., Pleasanton, CA (2020)
 Q-Chem 5.3.0 for Intel X86 EM64T Linux

User input:
--------------------------------------------------------------
$rem
   JOBTYPE  sp
   EXCHANGE   omegaB97X-D
   BASIS   6-311+G(2df,2pd)
   max_scf_cycles   250
   geom_opt_max_cycles   1500
   basis2 6-31G*
   scf_algorithm rca_diis
   SYM_IGNORE  TRUE
   print_input   true
   geom_opt_dmax   80
   pop_mulliken false
   XC_GRID 000075000302
$end

$molecule
0 1
C       1.4234562030     -0.0000005316     0.2636512766
C       -0.0000001071     0.0000023970     -0.3323592355
H       1.6717578784     -0.8849181276     0.8513301588
H       1.6717628614     0.8849153808     0.8513305750
H       2.0757044324     -0.0000032943     -0.6133791391
C       -1.4234564817     0.0000005645     0.2636510125
H       0.0000006361     -0.8545331110     -1.0162317292
H       -0.0000002800     0.8545396775     -1.0162295285
H       -1.6717569124     -0.8849146096     0.8513340371
H       -2.0757049566     -0.0000065766     -0.6133789999
H       -1.6717633341     0.8849188970     0.8513265911
$end
--------------------------------------------------------------

             Standard Nuclear Orientation (Angstroms)
    I     Atom           X                Y                Z
 ----------------------------------------------------------------
    1      C       1.4234562030    -0.0000005316     0.2636512766
    2      C      -0.0000001071     0.0000023970    -0.3323592355
    3      H       1.6717578784    -0.8849181276     0.8513301588
    4      H       1.6717628614     0.8849153808     0.8513305750
    5      H       2.0757044324    -0.0000032943    -0.6133791391
    6      C      -1.4234564817     0.0000005645     0.2636510125
    7      H       0.0000006361    -0.8545331110    -1.0162317292
    8      H      -0.0000002800     0.8545396775    -1.0162295285
    9      H      -1.6717569124    -0.8849146096     0.8513340371
   10      H      -2.0757049566    -0.0000065766    -0.6133789999
   11      H      -1.6717633341     0.8849188970     0.8513265911
 ----------------------------------------------------------------

    7    -119.0864333887      4.12E-06 Convergence criterion met
    6    -119.1294755999      4.19E-06 Convergence criterion met
 Total energy in the final basis set = -119.12947560

                    Orbital Energies (a.u.)
 --------------------------------------------------------------

 Alpha MOs
 -- Occupied --
-10.2772 -10.2701 -10.2701  -0.8735  -0.7884  -0.6731  -0.5386  -0.5107
 -0.4955  -0.4732  -0.4273  -0.4006  -0.3990

                    Cartesian Multipole Moments
 -----------------------------------------------------------------
    Charge (ESU x 10^10)
                 0.0000
    Dipole Moment (Debye)
         X       0.0000      Y      -0.0000      Z      -0.1791
       Tot       0.1791
    Quadrupole Moments (Debye-Ang)
        XX     -21.9254     XY      -0.0000     YY     -21.4434
        XZ       0.0000     YZ       0.0000     ZZ     -21.7745

 Total job time:  24.84s(wall), 68.44s(cpu)
        *  Thank you very much for using Q-Chem.  Have a nice day.  *
