 Q-Chem 5.3 (devel), Q-Chem, Inc., Pleasanton, CA (2020)
 Q-Chem 5.3.0 for Intel X86 EM64T Linux

User input:
--------------------------------------------------------------
$rem
   JOBTYPE  sp
   EXCHANGE   omegaB97X-D
   BASIS   6-311+G(2df,2pd)
   max_scf_cycles   250
   geom_opt_max_cycles   1500
   basis2 6-31G*
   scf_algorithm rca_diis
   SYM_IGNORE  TRUE
   print_input   true
   geom_opt_dmax   80
   pop_mulliken false
   XC_GRID 000075000302
$end

$molecule
0 1
C       1.1095833046     -0.6119598533     0.2616935755
C       0.0000029820     0.0000135656     -0.5850873848
H       1.9612703332     0.0651881155     0.2725166634
H       1.4584043173     -1.5751339035     -0.1268691053
H       0.7927382246     -0.7568934280     1.2950016632
C       -1.1095864912     0.6119520884     0.2617071013
H       -0.3161334636     -0.8159394083     -1.2393304135
H       0.3161460093     0.8159947916     -1.2392930703
H       -1.4584795445     1.5750907619     -0.1268760548
H       -0.7927142859     0.7569340207     1.2950001605
H       -1.9612314464     -0.0652460846     0.2725818836
$end
--------------------------------------------------------------

             Standard Nuclear Orientation (Angstroms)
    I     Atom           X                Y                Z
 ----------------------------------------------------------------
    1      C       1.1095833046    -0.6119598533     0.2616935755
    2      C       0.0000029820     0.0000135656    -0.5850873848
    3      H       1.9612703332     0.0651881155     0.2725166634
    4      H       1.4584043173    -1.5751339035    -0.1268691053
    5      H       0.7927382246    -0.7568934280     1.2950016632
    6      C      -1.1095864912     0.6119520884     0.2617071013
    7      H      -0.3161334636    -0.8159394083    -1.2393304135
    8      H       0.3161460093     0.8159947916    -1.2392930703
    9      H      -1.4584795445     1.5750907619    -0.1268760548
   10      H      -0.7927142859     0.7569340207     1.2950001605
   11      H      -1.9612314464    -0.0652460846     0.2725818836
 ----------------------------------------------------------------

    7    -119.0897444983      4.37E-06 Convergence criterion met
    6    -119.1331788045      4.01E-06 Convergence criterion met
 Total energy in the final basis set = -119.13317880

                    Orbital Energies (a.u.)
 --------------------------------------------------------------

 Alpha MOs
 -- Occupied --
-10.2716 -10.2640 -10.2640  -0.8815  -0.7769  -0.6776  -0.5449  -0.5274
 -0.4788  -0.4697  -0.4202  -0.4192  -0.3911

                    Cartesian Multipole Moments
 -----------------------------------------------------------------
    Charge (ESU x 10^10)
                 0.0000
    Dipole Moment (Debye)
         X       0.0000      Y      -0.0000      Z      -0.0722
       Tot       0.0722
    Quadrupole Moments (Debye-Ang)
        XX     -22.3690     XY       0.2499     YY     -21.2531
        XZ       0.0000     YZ       0.0000     ZZ     -21.8369

 Total job time:  26.99s(wall), 73.56s(cpu)
        *  Thank you very much for using Q-Chem.  Have a nice day.  *
