 Q-Chem 5.3 (devel), Q-Chem, Inc., Pleasanton, CA (2020)
 Q-Chem 5.3.0 for Intel X86 EM64T Linux

User input:
--------------------------------------------------------------
$rem
   JOBTYPE  sp
   EXCHANGE   omegaB97X-D
   BASIS   6-311+G(2df,2pd)
   max_scf_cycles   250
   geom_opt_max_cycles   1500
   basis2 6-31G*
   scf_algorithm rca_diis
   SYM_IGNORE  TRUE
   print_input   true
   geom_opt_dmax   80
   pop_mulliken false
   XC_GRID 000075000302
$end

$molecule
0 1
C       1.3012799025     0.0000000704     0.3388238124
C       0.0000008951     0.0000001426     -0.5360841271
H       1.1425802478     -0.9328463805     0.8754431568
H       1.1425804083     0.9328465155     0.8754432329
H       2.0453031759     0.0000001072     -0.4528513242
C       -1.3012778231     -0.0000000168     0.3388231182
H       0.0000005715     -0.8715499838     -1.1982952711
H       0.0000010550     0.8715501036     -1.1982955193
H       -1.1425825505     -0.9328466766     0.8754434968
H       -2.0453044216     0.0000002634     -0.4528491623
H       -1.1425815215     0.9328465209     0.8754436058
$end
--------------------------------------------------------------

             Standard Nuclear Orientation (Angstroms)
    I     Atom           X                Y                Z
 ----------------------------------------------------------------
    1      C       1.3012799025     0.0000000704     0.3388238124
    2      C       0.0000008951     0.0000001426    -0.5360841271
    3      H       1.1425802478    -0.9328463805     0.8754431568
    4      H       1.1425804083     0.9328465155     0.8754432329
    5      H       2.0453031759     0.0000001072    -0.4528513242
    6      C      -1.3012778231    -0.0000000168     0.3388231182
    7      H       0.0000005715    -0.8715499838    -1.1982952711
    8      H       0.0000010550     0.8715501036    -1.1982955193
    9      H      -1.1425825505    -0.9328466766     0.8754434968
   10      H      -2.0453044216     0.0000002634    -0.4528491623
   11      H      -1.1425815215     0.9328465209     0.8754436058
 ----------------------------------------------------------------

    7    -119.0684325001      6.05E-06 Convergence criterion met
    6    -119.1126782705      4.22E-06 Convergence criterion met
 Total energy in the final basis set = -119.11267827

                    Orbital Energies (a.u.)
 --------------------------------------------------------------

 Alpha MOs
 -- Occupied --
-10.2724 -10.2686 -10.2686  -0.8831  -0.7772  -0.6634  -0.5602  -0.5284
 -0.4868  -0.4810  -0.4132  -0.4041  -0.3896

                    Cartesian Multipole Moments
 -----------------------------------------------------------------
    Charge (ESU x 10^10)
                 0.0000
    Dipole Moment (Debye)
         X      -0.0000      Y      -0.0000      Z      -0.3479
       Tot       0.3479
    Quadrupole Moments (Debye-Ang)
        XX     -23.9282     XY       0.0000     YY     -20.8919
        XZ      -0.0000     YZ      -0.0000     ZZ     -22.2598

 Total job time:  26.86s(wall), 73.69s(cpu)
        *  Thank you very much for using Q-Chem.  Have a nice day.  *
