 Q-Chem 5.3 (devel), Q-Chem, Inc., Pleasanton, CA (2020)
 Q-Chem 5.3.0 for Intel X86 EM64T Linux

User input:
--------------------------------------------------------------
$rem
   JOBTYPE  sp
   EXCHANGE   omegaB97X-D
   BASIS   6-311+G(2df,2pd)
   max_scf_cycles   250
   geom_opt_max_cycles   1500
   basis2 6-31G*
   scf_algorithm rca_diis
   SYM_IGNORE  TRUE
   print_input   true
   geom_opt_dmax   80
   pop_mulliken false
   XC_GRID 000075000302
$end

$molecule
0 1
C       1.2625405714     -0.1963987587     0.1197467167
C       -0.0000017165     0.5844049307     -0.2252906566
H       1.4119468755     -0.0213852557     1.1901749242
H       2.1795893975     0.0879852176     -0.3938170198
H       1.1178520415     -1.2686048077     -0.0164940739
C       -1.2625403978     -0.1964065262     0.1197438999
H       -0.0000007574     0.5795682195     -1.3172186475
H       -0.0000055237     1.6328814959     0.0843551815
H       -1.4119221405     -0.0214473294     1.1901838744
H       -1.1178601951     -1.2686066663     -0.0165542631
H       -2.1795982155     0.0880101462     -0.3937849169
$end
--------------------------------------------------------------

             Standard Nuclear Orientation (Angstroms)
    I     Atom           X                Y                Z
 ----------------------------------------------------------------
    1      C       1.2625405714    -0.1963987587     0.1197467167
    2      C      -0.0000017165     0.5844049307    -0.2252906566
    3      H       1.4119468755    -0.0213852557     1.1901749242
    4      H       2.1795893975     0.0879852176    -0.3938170198
    5      H       1.1178520415    -1.2686048077    -0.0164940739
    6      C      -1.2625403978    -0.1964065262     0.1197438999
    7      H      -0.0000007574     0.5795682195    -1.3172186475
    8      H      -0.0000055237     1.6328814959     0.0843551815
    9      H      -1.4119221405    -0.0214473294     1.1901838744
   10      H      -1.1178601951    -1.2686066663    -0.0165542631
   11      H      -2.1795982155     0.0880101462    -0.3937849169
 ----------------------------------------------------------------

    7    -119.0912935930      4.76E-06 Convergence criterion met
    6    -119.1346612697      4.17E-06 Convergence criterion met
 Total energy in the final basis set = -119.13466127

                    Orbital Energies (a.u.)
 --------------------------------------------------------------

 Alpha MOs
 -- Occupied --
-10.2737 -10.2658 -10.2658  -0.8836  -0.7766  -0.6783  -0.5479  -0.5291
 -0.4758  -0.4655  -0.4304  -0.4228  -0.3860

                    Cartesian Multipole Moments
 -----------------------------------------------------------------
    Charge (ESU x 10^10)
                -0.0000
    Dipole Moment (Debye)
         X      -0.0000      Y       0.0372      Z      -0.0706
       Tot       0.0798
    Quadrupole Moments (Debye-Ang)
        XX     -22.0232     XY      -0.0000     YY     -21.4566
        XZ      -0.0000     YZ       0.4986     ZZ     -21.9593

 Total job time:  27.49s(wall), 74.71s(cpu)
        *  Thank you very much for using Q-Chem.  Have a nice day.  *
