 Q-Chem 5.3 (devel), Q-Chem, Inc., Pleasanton, CA (2020)
 Q-Chem 5.3.0 for Intel X86 EM64T Linux

User input:
--------------------------------------------------------------
$rem
   JOBTYPE  sp
   EXCHANGE   omegaB97X-D
   BASIS   6-311+G(2df,2pd)
   max_scf_cycles   250
   geom_opt_max_cycles   1500
   basis2 6-31G*
   scf_algorithm rca_diis
   SYM_IGNORE  TRUE
   print_input   true
   geom_opt_dmax   80
   pop_mulliken false
   XC_GRID 000075000302
$end

$molecule
0 1
C       1.2641161760     0.1654200266     0.1646505074
C       -0.0000011978     -0.5190509409     -0.3415407224
H       2.2052682298     -0.3216907547     -0.0879116716
H       1.1794021386     0.1784236627     1.2556066023
H       1.3195495548     1.2014329811     -0.1710977415
C       -1.2641150055     0.1654282924     0.1646473704
H       -0.0000045949     -1.6058525222     -0.2241579184
H       0.0000007858     -0.3223082075     -1.4157335403
H       -2.2052646662     -0.3217053062     -0.0878814468
H       -1.3195666462     1.2014278817     -0.1711384288
H       -1.1793848350     0.1784755530     1.2556020087
$end
--------------------------------------------------------------

             Standard Nuclear Orientation (Angstroms)
    I     Atom           X                Y                Z
 ----------------------------------------------------------------
    1      C       1.2641161760     0.1654200266     0.1646505074
    2      C      -0.0000011978    -0.5190509409    -0.3415407224
    3      H       2.2052682298    -0.3216907547    -0.0879116716
    4      H       1.1794021386     0.1784236627     1.2556066023
    5      H       1.3195495548     1.2014329811    -0.1710977415
    6      C      -1.2641150055     0.1654282924     0.1646473704
    7      H      -0.0000045949    -1.6058525222    -0.2241579184
    8      H       0.0000007858    -0.3223082075    -1.4157335403
    9      H      -2.2052646662    -0.3217053062    -0.0878814468
   10      H      -1.3195666462     1.2014278817    -0.1711384288
   11      H      -1.1793848350     0.1784755530     1.2556020087
 ----------------------------------------------------------------

    7    -119.0967383663      4.59E-06 Convergence criterion met
    6    -119.1399129061      4.13E-06 Convergence criterion met
 Total energy in the final basis set = -119.13991291

                    Orbital Energies (a.u.)
 --------------------------------------------------------------

 Alpha MOs
 -- Occupied --
-10.2740 -10.2662 -10.2662  -0.8833  -0.7767  -0.6783  -0.5481  -0.5296
 -0.4769  -0.4610  -0.4285  -0.4217  -0.3952

                    Cartesian Multipole Moments
 -----------------------------------------------------------------
    Charge (ESU x 10^10)
                 0.0000
    Dipole Moment (Debye)
         X      -0.0000      Y      -0.0270      Z      -0.0884
       Tot       0.0924
    Quadrupole Moments (Debye-Ang)
        XX     -21.8703     XY       0.0000     YY     -21.4684
        XZ      -0.0000     YZ      -0.4229     ZZ     -22.0449

 Total job time:  26.76s(wall), 72.80s(cpu)
        *  Thank you very much for using Q-Chem.  Have a nice day.  *
