 Q-Chem 5.3 (devel), Q-Chem, Inc., Pleasanton, CA (2020)
 Q-Chem 5.3.0 for Intel X86 EM64T Linux

User input:
--------------------------------------------------------------
$rem
   JOBTYPE  sp
   EXCHANGE   omegaB97X-D
   BASIS   6-311+G(2df,2pd)
   max_scf_cycles   250
   geom_opt_max_cycles   1500
   basis2 6-31G*
   scf_algorithm rca_diis
   SYM_IGNORE  TRUE
   print_input   true
   geom_opt_dmax   80
   pop_mulliken false
   XC_GRID 000075000302
$end

$molecule
0 1
C       1.2494417098     0.2421750060     -0.1051152196
C       -0.0000033652     -0.3938194429     0.4924831981
H       1.2435241437     0.8278152961     -1.0194641338
H       1.8262188441     -0.6743499120     -0.2859182461
H       1.7973360676     0.8066574106     0.6500630855
C       -1.2494389673     0.2421796017     -0.1051283289
H       -0.0000087969     -0.7422160010     1.5294172409
H       -0.0000012895     -1.2686055293     -0.1599389271
H       -1.2435116405     0.8277318068     -1.0195347908
H       -1.7972827923     0.8067622562     0.6500109582
H       -1.8262739740     -0.6743298262     -0.2858298176
$end
--------------------------------------------------------------

             Standard Nuclear Orientation (Angstroms)
    I     Atom           X                Y                Z
 ----------------------------------------------------------------
    1      C       1.2494417098     0.2421750060    -0.1051152196
    2      C      -0.0000033652    -0.3938194429     0.4924831981
    3      H       1.2435241437     0.8278152961    -1.0194641338
    4      H       1.8262188441    -0.6743499120    -0.2859182461
    5      H       1.7973360676     0.8066574106     0.6500630855
    6      C      -1.2494389673     0.2421796017    -0.1051283289
    7      H      -0.0000087969    -0.7422160010     1.5294172409
    8      H      -0.0000012895    -1.2686055293    -0.1599389271
    9      H      -1.2435116405     0.8277318068    -1.0195347908
   10      H      -1.7972827923     0.8067622562     0.6500109582
   11      H      -1.8262739740    -0.6743298262    -0.2858298176
 ----------------------------------------------------------------

    7    -119.0566507529      6.73E-06 Convergence criterion met
    5    -119.1012631606      9.13E-06 Convergence criterion met
 Total energy in the final basis set = -119.10126316

                    Orbital Energies (a.u.)
 --------------------------------------------------------------

 Alpha MOs
 -- Occupied --
-10.2749 -10.2620 -10.2620  -0.8870  -0.7783  -0.6754  -0.5499  -0.5114
 -0.5009  -0.4652  -0.4523  -0.3814  -0.3749

                    Cartesian Multipole Moments
 -----------------------------------------------------------------
    Charge (ESU x 10^10)
                -0.0000
    Dipole Moment (Debye)
         X      -0.0000      Y      -0.2050      Z      -0.0065
       Tot       0.2051
    Quadrupole Moments (Debye-Ang)
        XX     -23.4109     XY       0.0000     YY     -21.6046
        XZ       0.0000     YZ      -0.4763     ZZ     -20.7414

 Total job time:  24.71s(wall), 66.81s(cpu)
        *  Thank you very much for using Q-Chem.  Have a nice day.  *
