 Q-Chem 5.2 (devel), Q-Chem, Inc., Pleasanton, CA (2019)
 Q-Chem 5.2.2 for Intel X86 EM64T Linux

User input:
--------------------------------------------------------------
$rem
   JOBTYPE  sp
   EXCHANGE   omegaB97X-D
   BASIS   6-311+G(2df,2pd)
   max_scf_cycles   250
   geom_opt_max_cycles   1500
   basis2 6-31G*
   scf_algorithm rca_diis
   SYM_IGNORE  TRUE
   print_input   true
   geom_opt_dmax   80
   pop_mulliken false
   XC_GRID 000075000302
$end

$molecule
0 1
C       1.2363040860     0.1136246196     0.2595253261
C       -0.0000000134     0.2014631756     -0.6273548515
H       1.0485884981     -0.8887804429     0.6575405534
H       1.4464577794     0.7825417932     1.0927614293
H       2.1346912320     -0.0045573549     -0.3471505835
C       -1.2363041554     0.1136256600     0.2595251834
H       -0.0000007651     -0.8897517931     -0.7554918410
H       0.0000005664     0.6826299885     -1.6014615106
H       -1.0485873788     -0.8887792411     0.6575405189
H       -2.1346911949     -0.0045580921     -0.3471505732
H       -1.4464587148     0.7825423531     1.0927613676
--------------------------------------------------------------

             Standard Nuclear Orientation (Angstroms)
    I     Atom           X                Y                Z
 ----------------------------------------------------------------
    1      C       1.2363040860     0.1136246196     0.2595253261
    2      C      -0.0000000134     0.2014631756    -0.6273548515
    3      H       1.0485884981    -0.8887804429     0.6575405534
    4      H       1.4464577794     0.7825417932     1.0927614293
    5      H       2.1346912320    -0.0045573549    -0.3471505835
    6      C      -1.2363041554     0.1136256600     0.2595251834
    7      H      -0.0000007651    -0.8897517931    -0.7554918410
    8      H       0.0000005664     0.6826299885    -1.6014615106
    9      H      -1.0485873788    -0.8887792411     0.6575405189
   10      H      -2.1346911949    -0.0045580921    -0.3471505732
   11      H      -1.4464587148     0.7825423531     1.0927613676
 ----------------------------------------------------------------

    7    -119.0502743004      5.74E-06 Convergence criterion met
    6    -119.0955229208      3.70E-06 Convergence criterion met
 Total energy in the final basis set = -119.09552292

                    Orbital Energies (a.u.)
 --------------------------------------------------------------

 Alpha MOs
 -- Occupied --
-10.2769 -10.2681 -10.2681  -0.8985  -0.7779  -0.6747  -0.5666  -0.5202
 -0.4946  -0.4500  -0.4318  -0.4106  -0.3809

                    Cartesian Multipole Moments
 -----------------------------------------------------------------
    Charge (ESU x 10^10)
                -0.0000
    Dipole Moment (Debye)
         X       0.0000      Y      -0.2815      Z      -0.1338
       Tot       0.3117
    Quadrupole Moments (Debye-Ang)
        XX     -22.3103     XY       0.0000     YY     -21.7732
        XZ      -0.0000     YZ       0.0978     ZZ     -21.6619

 Total job time:  35.10s(wall), 98.22s(cpu)
        *  Thank you very much for using Q-Chem.  Have a nice day.  *
