 Q-Chem 5.2 (devel), Q-Chem, Inc., Pleasanton, CA (2019)
 Q-Chem 5.2.2 for Intel X86 EM64T Linux

User input:
--------------------------------------------------------------
$rem
   JOBTYPE  sp
   EXCHANGE   omegaB97X-D
   BASIS   6-311+G(2df,2pd)
   max_scf_cycles   250
   geom_opt_max_cycles   1500
   basis2 6-31G*
   scf_algorithm rca_diis
   SYM_IGNORE  TRUE
   print_input   true
   geom_opt_dmax   80
   pop_mulliken false
   XC_GRID 000075000302
$end

$molecule
0 1
C       1.0353351770     0.7305646068     0.2551250917
C       0.0000050910     -0.0000166364     -0.5916730788
H       1.7971731443     1.2453561393     -0.3421577630
H       1.5460535190     0.0033356223     0.8816731100
H       0.5693603536     1.4614487445     0.9167961031
C       -1.0353395608     -0.7305533446     0.2551453420
H       0.3816870804     -0.7881177030     -1.2451054679
H       -0.3816639052     0.7880492990     -1.2451541172
H       -1.5459752497     -0.0033055276     0.8817407115
H       -0.5693925657     -1.4614910914     0.9167765915
H       -1.7972431446     -1.2452694429     -0.3421215040
--------------------------------------------------------------

             Standard Nuclear Orientation (Angstroms)
    I     Atom           X                Y                Z
 ----------------------------------------------------------------
    1      C       1.0353351770     0.7305646068     0.2551250917
    2      C       0.0000050910    -0.0000166364    -0.5916730788
    3      H       1.7971731443     1.2453561393    -0.3421577630
    4      H       1.5460535190     0.0033356223     0.8816731100
    5      H       0.5693603536     1.4614487445     0.9167961031
    6      C      -1.0353395608    -0.7305533446     0.2551453420
    7      H       0.3816870804    -0.7881177030    -1.2451054679
    8      H      -0.3816639052     0.7880492990    -1.2451541172
    9      H      -1.5459752497    -0.0033055276     0.8817407115
   10      H      -0.5693925657    -1.4614910914     0.9167765915
   11      H      -1.7972431446    -1.2452694429    -0.3421215040
 ----------------------------------------------------------------

    7    -119.0977602601      4.62E-06 Convergence criterion met
    6    -119.1408504853      4.00E-06 Convergence criterion met
 Total energy in the final basis set = -119.14085049

                    Orbital Energies (a.u.)
 --------------------------------------------------------------

 Alpha MOs
 -- Occupied --
-10.2739 -10.2659 -10.2659  -0.8822  -0.7776  -0.6780  -0.5473  -0.5253
 -0.4828  -0.4645  -0.4275  -0.4148  -0.3981

                    Cartesian Multipole Moments
 -----------------------------------------------------------------
    Charge (ESU x 10^10)
                 0.0000
    Dipole Moment (Debye)
         X       0.0000      Y      -0.0000      Z      -0.0586
       Tot       0.0586
    Quadrupole Moments (Debye-Ang)
        XX     -22.1864     XY      -0.1481     YY     -21.2661
        XZ       0.0000     YZ      -0.0000     ZZ     -21.9465

 Total job time:  41.43s(wall), 114.88s(cpu)
        *  Thank you very much for using Q-Chem.  Have a nice day.  *
