 Q-Chem 5.3 (devel), Q-Chem, Inc., Pleasanton, CA (2020)
 Q-Chem 5.3.0 for Intel X86 EM64T Linux

User input:
--------------------------------------------------------------
$rem
   JOBTYPE  sp
   EXCHANGE   omegaB97X-D
   BASIS   6-311+G(2df,2pd)
   max_scf_cycles   250
   geom_opt_max_cycles   1500
   basis2 6-31G*
   scf_algorithm rca_diis
   SYM_IGNORE  TRUE
   print_input   true
   geom_opt_dmax   80
   pop_mulliken false
   XC_GRID 000075000302
$end

$molecule
0 1
C       1.2008828030     0.4045209394     0.2668183524
C       0.0000016989     -0.0000091285     -0.5799180695
H       1.0345131425     1.3487408363     0.7943416178
H       2.0730289446     0.5352115910     -0.3728165459
H       1.4456239994     -0.3577674792     1.0071835677
C       -1.2008831455     -0.4045139903     0.2668248954
H       0.2054730334     -0.8499185738     -1.2350462766
H       -0.2054659494     0.8498801186     -1.2350729358
H       -2.0730421686     -0.5351545534     -0.3728036286
H       -1.4455892845     0.3577650970     1.0072112393
H       -1.0345431344     -1.3487541910     0.7943228028
$end
--------------------------------------------------------------

             Standard Nuclear Orientation (Angstroms)
    I     Atom           X                Y                Z
 ----------------------------------------------------------------
    1      C       1.2008828030     0.4045209394     0.2668183524
    2      C       0.0000016989    -0.0000091285    -0.5799180695
    3      H       1.0345131425     1.3487408363     0.7943416178
    4      H       2.0730289446     0.5352115910    -0.3728165459
    5      H       1.4456239994    -0.3577674792     1.0071835677
    6      C      -1.2008831455    -0.4045139903     0.2668248954
    7      H       0.2054730334    -0.8499185738    -1.2350462766
    8      H      -0.2054659494     0.8498801186    -1.2350729358
    9      H      -2.0730421686    -0.5351545534    -0.3728036286
   10      H      -1.4455892845     0.3577650970     1.0072112393
   11      H      -1.0345431344    -1.3487541910     0.7943228028
 ----------------------------------------------------------------

    7    -119.1011827358      4.60E-06 Convergence criterion met
    5    -119.1441288977      9.98E-06 Convergence criterion met
 Total energy in the final basis set = -119.14412890

                    Orbital Energies (a.u.)
 --------------------------------------------------------------

 Alpha MOs
 -- Occupied --
-10.2744 -10.2646 -10.2646  -0.8810  -0.7775  -0.6773  -0.5456  -0.5226
 -0.4848  -0.4652  -0.4192  -0.4180  -0.4030

                    Cartesian Multipole Moments
 -----------------------------------------------------------------
    Charge (ESU x 10^10)
                -0.0000
    Dipole Moment (Debye)
         X      -0.0000      Y      -0.0000      Z      -0.1020
       Tot       0.1020
    Quadrupole Moments (Debye-Ang)
        XX     -22.2919     XY      -0.1287     YY     -21.2983
        XZ      -0.0000     YZ      -0.0000     ZZ     -21.7925

 Total job time:  24.50s(wall), 66.26s(cpu)
        *  Thank you very much for using Q-Chem.  Have a nice day.  *
