 Q-Chem 5.3 (devel), Q-Chem, Inc., Pleasanton, CA (2020)
 Q-Chem 5.3.0 for Intel X86 EM64T Linux

User input:
--------------------------------------------------------------
$rem
   JOBTYPE  sp
   EXCHANGE   omegaB97X-D
   BASIS   6-311+G(2df,2pd)
   max_scf_cycles   250
   geom_opt_max_cycles   1500
   basis2 6-31G*
   scf_algorithm rca_diis
   SYM_IGNORE  TRUE
   print_input   true
   geom_opt_dmax   80
   pop_mulliken false
   XC_GRID 000075000302
$end

$molecule
0 1
C       1.2658614224     0.0239968644     0.2595107222
C       0.0000000006     0.0425248083     -0.5890011399
H       1.2607680347     -0.8898651304     0.8580620971
H       1.3446543081     0.8676466839     0.9472349013
H       2.1633971497     0.0007187708     -0.3593674041
C       -1.2658614259     0.0239971205     0.2595106820
H       -0.0000001098     -0.8941265617     -1.1539109671
H       0.0000000618     0.8466069694     -1.3269234815
H       -1.2607677781     -0.8898648503     0.8580621048
H       -2.1633971935     0.0007191051     -0.3593673957
H       -1.3446545305     0.8676468861     0.9472348998
$end
--------------------------------------------------------------

             Standard Nuclear Orientation (Angstroms)
    I     Atom           X                Y                Z
 ----------------------------------------------------------------
    1      C       1.2658614224     0.0239968644     0.2595107222
    2      C       0.0000000006     0.0425248083    -0.5890011399
    3      H       1.2607680347    -0.8898651304     0.8580620971
    4      H       1.3446543081     0.8676466839     0.9472349013
    5      H       2.1633971497     0.0007187708    -0.3593674041
    6      C      -1.2658614259     0.0239971205     0.2595106820
    7      H      -0.0000001098    -0.8941265617    -1.1539109671
    8      H       0.0000000618     0.8466069694    -1.3269234815
    9      H      -1.2607677781    -0.8898648503     0.8580621048
   10      H      -2.1633971935     0.0007191051    -0.3593673957
   11      H      -1.3446545305     0.8676468861     0.9472348998
 ----------------------------------------------------------------

    7    -119.1013575165      4.52E-06 Convergence criterion met
    6    -119.1443229227      3.86E-06 Convergence criterion met
 Total energy in the final basis set = -119.14432292

                    Orbital Energies (a.u.)
 --------------------------------------------------------------

 Alpha MOs
 -- Occupied --
-10.2742 -10.2652 -10.2652  -0.8818  -0.7771  -0.6776  -0.5467  -0.5238
 -0.4833  -0.4628  -0.4186  -0.4183  -0.4063

                    Cartesian Multipole Moments
 -----------------------------------------------------------------
    Charge (ESU x 10^10)
                -0.0000
    Dipole Moment (Debye)
         X       0.0000      Y      -0.0579      Z      -0.0872
       Tot       0.1047
    Quadrupole Moments (Debye-Ang)
        XX     -22.1734     XY      -0.0000     YY     -21.3785
        XZ       0.0000     YZ       0.0166     ZZ     -21.8355

 Total job time:  27.52s(wall), 74.64s(cpu)
        *  Thank you very much for using Q-Chem.  Have a nice day.  *
