 Q-Chem 5.3 (devel), Q-Chem, Inc., Pleasanton, CA (2020)
 Q-Chem 5.3.0 for Intel X86 EM64T Linux

User input:
--------------------------------------------------------------
$rem
   JOBTYPE  sp
   EXCHANGE   omegaB97X-D
   BASIS   6-311+G(2df,2pd)
   max_scf_cycles   250
   geom_opt_max_cycles   1500
   basis2 6-31G*
   scf_algorithm rca_diis
   SYM_IGNORE  TRUE
   print_input   true
   geom_opt_dmax   80
   pop_mulliken false
   XC_GRID 000075000302
$end

$molecule
0 1
C       1.2178378425     -0.0000000263     0.2167683013
C       0.0809648182     0.0000000093     -0.5851397098
H       1.2574213231     -0.8867602405     0.8496715109
H       1.2574213497     0.8867601804     0.8496715192
H       2.0989724983     -0.0000000202     -0.4256595543
C       -1.3204863953     0.0000000912     0.2986683556
H       0.1781895435     -0.8717535148     -1.2365610942
H       0.1781893656     0.8717535340     -1.2365611384
H       -1.3579282628     -0.8742470040     0.9545414513
H       -2.2326538689     0.0000005468     -0.2988961655
H       -1.3579282746     0.8742471100     0.9545415429
$end
--------------------------------------------------------------

             Standard Nuclear Orientation (Angstroms)
    I     Atom           X                Y                Z
 ----------------------------------------------------------------
    1      C       1.2178378425    -0.0000000263     0.2167683013
    2      C       0.0809648182     0.0000000093    -0.5851397098
    3      H       1.2574213231    -0.8867602405     0.8496715109
    4      H       1.2574213497     0.8867601804     0.8496715192
    5      H       2.0989724983    -0.0000000202    -0.4256595543
    6      C      -1.3204863953     0.0000000912     0.2986683556
    7      H       0.1781895435    -0.8717535148    -1.2365610942
    8      H       0.1781893656     0.8717535340    -1.2365611384
    9      H      -1.3579282628    -0.8742470040     0.9545414513
   10      H      -2.2326538689     0.0000005468    -0.2988961655
   11      H      -1.3579282746     0.8742471100     0.9545415429
 ----------------------------------------------------------------

    7    -119.0794597080      5.22E-06 Convergence criterion met
    6    -119.1233745846      4.64E-06 Convergence criterion met
 Total energy in the final basis set = -119.12337458

                    Orbital Energies (a.u.)
 --------------------------------------------------------------

 Alpha MOs
 -- Occupied --
-10.2744 -10.2731 -10.2548  -0.8940  -0.7759  -0.6738  -0.5525  -0.5297
 -0.4815  -0.4640  -0.4371  -0.4024  -0.3971

                    Cartesian Multipole Moments
 -----------------------------------------------------------------
    Charge (ESU x 10^10)
                -0.0000
    Dipole Moment (Debye)
         X       0.0845      Y       0.0000      Z      -0.0812
       Tot       0.1172
    Quadrupole Moments (Debye-Ang)
        XX     -22.0838     XY      -0.0000     YY     -21.3618
        XZ      -0.6230     YZ      -0.0000     ZZ     -21.8741

 Total job time:  24.94s(wall), 69.49s(cpu)
        *  Thank you very much for using Q-Chem.  Have a nice day.  *
