 Q-Chem 5.3 (devel), Q-Chem, Inc., Pleasanton, CA (2020)
 Q-Chem 5.3.0 for Intel X86 EM64T Linux

User input:
--------------------------------------------------------------
$rem
   JOBTYPE  sp
   EXCHANGE   omegaB97X-D
   BASIS   6-311+G(2df,2pd)
   max_scf_cycles   250
   geom_opt_max_cycles   1500
   basis2 6-31G*
   scf_algorithm rca_diis
   SYM_IGNORE  TRUE
   print_input   true
   geom_opt_dmax   80
   pop_mulliken false
   XC_GRID 000075000302
$end

$molecule
0 1
C       1.2660241472     -0.1045249797     0.2229048842
C       -0.0000003966     0.3539385598     -0.4910366546
H       0.9745353818     -0.4918752383     1.2029373983
H       1.9961949112     0.6886025354     0.3862604685
H       1.7611460471     -0.9120712887     -0.3173224042
C       -1.2660234139     -0.1045302372     0.2229045926
H       0.0000006417     -0.1421468188     -1.4641464130
H       -0.0000027835     1.4279725104     -0.6933263936
H       -0.9745336435     -0.4919072985     1.2029259120
H       -1.7611566314     -0.9120584376     -0.3173396489
H       -1.9961843208     0.6886013592     0.3862832777
$end
--------------------------------------------------------------

             Standard Nuclear Orientation (Angstroms)
    I     Atom           X                Y                Z
 ----------------------------------------------------------------
    1      C       1.2660241472    -0.1045249797     0.2229048842
    2      C      -0.0000003966     0.3539385598    -0.4910366546
    3      H       0.9745353818    -0.4918752383     1.2029373983
    4      H       1.9961949112     0.6886025354     0.3862604685
    5      H       1.7611460471    -0.9120712887    -0.3173224042
    6      C      -1.2660234139    -0.1045302372     0.2229045926
    7      H       0.0000006417    -0.1421468188    -1.4641464130
    8      H      -0.0000027835     1.4279725104    -0.6933263936
    9      H      -0.9745336435    -0.4919072985     1.2029259120
   10      H      -1.7611566314    -0.9120584376    -0.3173396489
   11      H      -1.9961843208     0.6886013592     0.3862832777
 ----------------------------------------------------------------

    7    -119.0894213084      4.13E-06 Convergence criterion met
    6    -119.1329960649      4.10E-06 Convergence criterion met
 Total energy in the final basis set = -119.13299606

                    Orbital Energies (a.u.)
 --------------------------------------------------------------

 Alpha MOs
 -- Occupied --
-10.2716 -10.2637 -10.2637  -0.8823  -0.7756  -0.6787  -0.5446  -0.5329
 -0.4715  -0.4681  -0.4185  -0.4179  -0.3985

                    Cartesian Multipole Moments
 -----------------------------------------------------------------
    Charge (ESU x 10^10)
                 0.0000
    Dipole Moment (Debye)
         X      -0.0000      Y       0.0167      Z      -0.0932
       Tot       0.0947
    Quadrupole Moments (Debye-Ang)
        XX     -22.2310     XY      -0.0000     YY     -21.3446
        XZ      -0.0000     YZ       0.3430     ZZ     -21.8739

 Total job time:  26.73s(wall), 73.02s(cpu)
        *  Thank you very much for using Q-Chem.  Have a nice day.  *
