 Q-Chem 5.3 (devel), Q-Chem, Inc., Pleasanton, CA (2020)
 Q-Chem 5.3.0 for Intel X86 EM64T Linux

User input:
--------------------------------------------------------------
$rem
   JOBTYPE  sp
   EXCHANGE   omegaB97X-D
   BASIS   6-311+G(2df,2pd)
   max_scf_cycles   250
   geom_opt_max_cycles   1500
   basis2 6-31G*
   scf_algorithm rca_diis
   SYM_IGNORE  TRUE
   print_input   true
   geom_opt_dmax   80
   pop_mulliken false
   XC_GRID 000075000302
$end

$molecule
0 1
C       0.7966034029     -0.9853561263     0.2571492153
C       0.0000097578     0.0000197721     -0.5897207089
H       0.1096143063     -1.4363692031     0.9658702369
H       1.6144644672     -0.5296459561     0.8317958712
H       1.2101265320     -1.7919947513     -0.3490312168
C       -0.7966134321     0.9853368870     0.2571903490
H       -0.5325922283     -0.6975056804     -1.2405262431
H       0.5326344915     0.6975928393     -1.2404585129
H       -1.6143761543     0.5295646393     0.8319246792
H       -1.2102620030     1.7919162587     -0.3489835640
H       -0.1096092005     1.4364419870     0.9658349130
$end
--------------------------------------------------------------

             Standard Nuclear Orientation (Angstroms)
    I     Atom           X                Y                Z
 ----------------------------------------------------------------
    1      C       0.7966034029    -0.9853561263     0.2571492153
    2      C       0.0000097578     0.0000197721    -0.5897207089
    3      H       0.1096143063    -1.4363692031     0.9658702369
    4      H       1.6144644672    -0.5296459561     0.8317958712
    5      H       1.2101265320    -1.7919947513    -0.3490312168
    6      C      -0.7966134321     0.9853368870     0.2571903490
    7      H      -0.5325922283    -0.6975056804    -1.2405262431
    8      H       0.5326344915     0.6975928393    -1.2404585129
    9      H      -1.6143761543     0.5295646393     0.8319246792
   10      H      -1.2102620030     1.7919162587    -0.3489835640
   11      H      -0.1096092005     1.4364419870     0.9658349130
 ----------------------------------------------------------------

    7    -119.0929940260      4.74E-06 Convergence criterion met
    6    -119.1362698450      4.01E-06 Convergence criterion met
 Total energy in the final basis set = -119.13626985

                    Orbital Energies (a.u.)
 --------------------------------------------------------------

 Alpha MOs
 -- Occupied --
-10.2741 -10.2660 -10.2660  -0.8830  -0.7789  -0.6776  -0.5478  -0.5264
 -0.4838  -0.4645  -0.4249  -0.4151  -0.3967

                    Cartesian Multipole Moments
 -----------------------------------------------------------------
    Charge (ESU x 10^10)
                -0.0000
    Dipole Moment (Debye)
         X       0.0000      Y       0.0000      Z      -0.0620
       Tot       0.0620
    Quadrupole Moments (Debye-Ang)
        XX     -22.1303     XY       0.3895     YY     -21.3928
        XZ      -0.0000     YZ       0.0000     ZZ     -21.9118

 Total job time:  26.50s(wall), 72.43s(cpu)
        *  Thank you very much for using Q-Chem.  Have a nice day.  *
