 Q-Chem 5.3 (devel), Q-Chem, Inc., Pleasanton, CA (2020)
 Q-Chem 5.3.0 for Intel X86 EM64T Linux

User input:
--------------------------------------------------------------
$rem
   JOBTYPE  sp
   EXCHANGE   omegaB97X-D
   BASIS   6-311+G(2df,2pd)
   max_scf_cycles   250
   geom_opt_max_cycles   1500
   basis2 6-31G*
   scf_algorithm rca_diis
   SYM_IGNORE  TRUE
   print_input   true
   geom_opt_dmax   80
   pop_mulliken false
   XC_GRID 000075000302
$end

$molecule
0 1
C       1.0230085181     0.0000011237     0.2614698359
C       0.0000001323     -0.0000035662     -0.8370108825
H       0.7945703587     -0.8693038868     0.8833972539
H       0.7945627344     0.8693059024     0.8833947929
H       2.0871719452     0.0000063914     0.0376172053
C       -1.0230080873     -0.0000002899     0.2614700604
H       -0.0000006927     -0.8828310059     -1.4768506583
H       0.0000003230     0.8828227550     -1.4768521834
H       -0.7945734365     -0.8693088557     0.8833937757
H       -2.0871715963     0.0000109835     0.0376167869
H       -0.7945602593     0.8693011146     0.8833990320
$end
--------------------------------------------------------------

             Standard Nuclear Orientation (Angstroms)
    I     Atom           X                Y                Z
 ----------------------------------------------------------------
    1      C       1.0230085181     0.0000011237     0.2614698359
    2      C       0.0000001323    -0.0000035662    -0.8370108825
    3      H       0.7945703587    -0.8693038868     0.8833972539
    4      H       0.7945627344     0.8693059024     0.8833947929
    5      H       2.0871719452     0.0000063914     0.0376172053
    6      C      -1.0230080873    -0.0000002899     0.2614700604
    7      H      -0.0000006927    -0.8828310059    -1.4768506583
    8      H       0.0000003230     0.8828227550    -1.4768521834
    9      H      -0.7945734365    -0.8693088557     0.8833937757
   10      H      -2.0871715963     0.0000109835     0.0376167869
   11      H      -0.7945602593     0.8693011146     0.8833990320
 ----------------------------------------------------------------

    7    -119.0406457181      2.64E-06 Convergence criterion met
    5    -119.0866554062      6.66E-06 Convergence criterion met
 Total energy in the final basis set = -119.08665541

                    Orbital Energies (a.u.)
 --------------------------------------------------------------

 Alpha MOs
 -- Occupied --
-10.2739 -10.2617 -10.2617  -0.9225  -0.7444  -0.7000  -0.5752  -0.5476
 -0.4589  -0.4440  -0.4318  -0.4229  -0.3832

                    Cartesian Multipole Moments
 -----------------------------------------------------------------
    Charge (ESU x 10^10)
                -0.0000
    Dipole Moment (Debye)
         X      -0.0000      Y       0.0000      Z       0.0274
       Tot       0.0274
    Quadrupole Moments (Debye-Ang)
        XX     -23.4213     XY      -0.0000     YY     -21.0929
        XZ      -0.0000     YZ       0.0000     ZZ     -21.4309

 Total job time:  25.74s(wall), 69.75s(cpu)
        *  Thank you very much for using Q-Chem.  Have a nice day.  *
