 Q-Chem 5.3 (devel), Q-Chem, Inc., Pleasanton, CA (2020)
 Q-Chem 5.3.0 for Intel X86 EM64T Linux

User input:
--------------------------------------------------------------
$rem
   JOBTYPE  sp
   EXCHANGE   omegaB97X-D
   BASIS   6-311+G(2df,2pd)
   max_scf_cycles   250
   geom_opt_max_cycles   1500
   basis2 6-31G*
   scf_algorithm rca_diis
   SYM_IGNORE  TRUE
   print_input   true
   geom_opt_dmax   80
   pop_mulliken false
   XC_GRID 000075000302
$end

$molecule
0 1
C       1.2483722048     -0.2385419529     -0.1135039416
C       -0.0000022538     0.3547516938     0.5285859220
H       1.7477498932     0.7029194218     -0.3782039660
H       1.2309383779     -0.8756229248     -0.9924001655
H       1.8783401172     -0.7196531352     0.6353580811
C       -1.2483692195     -0.2385431070     -0.1135191760
H       0.0000003244     1.2645391423     -0.0739936527
H       -0.0000091736     0.6425409029     1.5839901592
H       -1.7478144932     0.7029103595     -0.3781153523
H       -1.8782819072     -0.7197597489     0.6353223060
H       -1.2309239308     -0.8755399854     -0.9924751952
$end
--------------------------------------------------------------

             Standard Nuclear Orientation (Angstroms)
    I     Atom           X                Y                Z
 ----------------------------------------------------------------
    1      C       1.2483722048    -0.2385419529    -0.1135039416
    2      C      -0.0000022538     0.3547516938     0.5285859220
    3      H       1.7477498932     0.7029194218    -0.3782039660
    4      H       1.2309383779    -0.8756229248    -0.9924001655
    5      H       1.8783401172    -0.7196531352     0.6353580811
    6      C      -1.2483692195    -0.2385431070    -0.1135191760
    7      H       0.0000003244     1.2645391423    -0.0739936527
    8      H      -0.0000091736     0.6425409029     1.5839901592
    9      H      -1.7478144932     0.7029103595    -0.3781153523
   10      H      -1.8782819072    -0.7197597489     0.6353223060
   11      H      -1.2309239308    -0.8755399854    -0.9924751952
 ----------------------------------------------------------------

    7    -119.0513290599      6.65E-06 Convergence criterion met
    5    -119.0962552035      9.20E-06 Convergence criterion met
 Total energy in the final basis set = -119.09625520

                    Orbital Energies (a.u.)
 --------------------------------------------------------------

 Alpha MOs
 -- Occupied --
-10.2743 -10.2619 -10.2619  -0.8878  -0.7783  -0.6749  -0.5517  -0.5117
 -0.5004  -0.4651  -0.4510  -0.3820  -0.3718

                    Cartesian Multipole Moments
 -----------------------------------------------------------------
    Charge (ESU x 10^10)
                -0.0000
    Dipole Moment (Debye)
         X      -0.0000      Y       0.2055      Z       0.0016
       Tot       0.2055
    Quadrupole Moments (Debye-Ang)
        XX     -23.3982     XY      -0.0000     YY     -21.5786
        XZ       0.0000     YZ       0.4042     ZZ     -20.7919

 Total job time:  23.65s(wall), 64.73s(cpu)
        *  Thank you very much for using Q-Chem.  Have a nice day.  *
