 Q-Chem 5.3 (devel), Q-Chem, Inc., Pleasanton, CA (2020)
 Q-Chem 5.3.0 for Intel X86 EM64T Linux

User input:
--------------------------------------------------------------
$rem
   JOBTYPE  sp
   EXCHANGE   omegaB97X-D
   BASIS   6-311+G(2df,2pd)
   max_scf_cycles   250
   geom_opt_max_cycles   1500
   basis2 6-31G*
   scf_algorithm rca_diis
   SYM_IGNORE  TRUE
   print_input   true
   geom_opt_dmax   80
   pop_mulliken false
   XC_GRID 000075000302
$end

$molecule
0 1
C       1.2663034229     0.0916189400     0.2314532963
C       -0.0000003578     -0.3141608046     -0.5132207177
H       1.9226005669     -0.7466002485     0.4680102262
H       0.9717428501     0.5566851650     1.1759134648
H       1.8456054884     0.8242096566     -0.3314343063
C       -1.2663030155     0.0916240802     0.2314520881
H       -0.0000021940     -1.3746492857     -0.7773139993
H       0.0000011569     0.2369604149     -1.4562997523
H       -1.9225898468     -0.7465978091     0.4680290231
H       -1.8456153695     0.8241983696     -0.3314460894
H       -0.9717427621     0.5567121877     1.1759017855
$end
--------------------------------------------------------------

             Standard Nuclear Orientation (Angstroms)
    I     Atom           X                Y                Z
 ----------------------------------------------------------------
    1      C       1.2663034229     0.0916189400     0.2314532963
    2      C      -0.0000003578    -0.3141608046    -0.5132207177
    3      H       1.9226005669    -0.7466002485     0.4680102262
    4      H       0.9717428501     0.5566851650     1.1759134648
    5      H       1.8456054884     0.8242096566    -0.3314343063
    6      C      -1.2663030155     0.0916240802     0.2314520881
    7      H      -0.0000021940    -1.3746492857    -0.7773139993
    8      H       0.0000011569     0.2369604149    -1.4562997523
    9      H      -1.9225898468    -0.7465978091     0.4680290231
   10      H      -1.8456153695     0.8241983696    -0.3314460894
   11      H      -0.9717427621     0.5567121877     1.1759017855
 ----------------------------------------------------------------

    7    -119.0893216634      4.12E-06 Convergence criterion met
    6    -119.1328932853      4.08E-06 Convergence criterion met
 Total energy in the final basis set = -119.13289329

                    Orbital Energies (a.u.)
 --------------------------------------------------------------

 Alpha MOs
 -- Occupied --
-10.2715 -10.2635 -10.2634  -0.8821  -0.7755  -0.6786  -0.5442  -0.5325
 -0.4718  -0.4686  -0.4196  -0.4164  -0.3982

                    Cartesian Multipole Moments
 -----------------------------------------------------------------
    Charge (ESU x 10^10)
                -0.0000
    Dipole Moment (Debye)
         X      -0.0000      Y      -0.0147      Z      -0.0915
       Tot       0.0927
    Quadrupole Moments (Debye-Ang)
        XX     -22.2897     XY      -0.0000     YY     -21.3121
        XZ      -0.0000     YZ      -0.3044     ZZ     -21.8558

 Total job time:  26.48s(wall), 72.57s(cpu)
        *  Thank you very much for using Q-Chem.  Have a nice day.  *
