 Q-Chem 5.3 (devel), Q-Chem, Inc., Pleasanton, CA (2020)
 Q-Chem 5.3.0 for Intel X86 EM64T Linux

User input:
--------------------------------------------------------------
$rem
   JOBTYPE  sp
   EXCHANGE   omegaB97X-D
   BASIS   6-311+G(2df,2pd)
   max_scf_cycles   250
   geom_opt_max_cycles   1500
   basis2 6-31G*
   scf_algorithm rca_diis
   SYM_IGNORE  TRUE
   print_input   true
   geom_opt_dmax   80
   pop_mulliken false
   XC_GRID 000075000302
$end

$molecule
0 1
C       1.1710499619     0.4841244702     0.2661929003
C       0.0000023898     -0.0000110761     -0.5805557586
H       1.1523165672     1.5673755787     0.4236587913
H       2.1059472035     0.2418322214     -0.2368479204
H       1.1876490823     0.0000221549     1.2431739577
C       -1.1710507356     -0.4841166974     0.2662020965
H       0.2474101876     -0.8389086425     -1.2353823913
H       -0.2474001115     0.8388625987     -1.2354141589
H       -2.1059456473     -0.2417653193     -0.2368160374
H       -1.1876138061     -0.0000405172     1.2431966548
H       -1.1523651525     -1.5673741054     0.4236368849
$end
--------------------------------------------------------------

             Standard Nuclear Orientation (Angstroms)
    I     Atom           X                Y                Z
 ----------------------------------------------------------------
    1      C       1.1710499619     0.4841244702     0.2661929003
    2      C       0.0000023898    -0.0000110761    -0.5805557586
    3      H       1.1523165672     1.5673755787     0.4236587913
    4      H       2.1059472035     0.2418322214    -0.2368479204
    5      H       1.1876490823     0.0000221549     1.2431739577
    6      C      -1.1710507356    -0.4841166974     0.2662020965
    7      H       0.2474101876    -0.8389086425    -1.2353823913
    8      H      -0.2474001115     0.8388625987    -1.2354141589
    9      H      -2.1059456473    -0.2417653193    -0.2368160374
   10      H      -1.1876138061    -0.0000405172     1.2431966548
   11      H      -1.1523651525    -1.5673741054     0.4236368849
 ----------------------------------------------------------------

    7    -119.0944961083      4.46E-06 Convergence criterion met
    6    -119.1376696898      3.88E-06 Convergence criterion met
 Total energy in the final basis set = -119.13766969

                    Orbital Energies (a.u.)
 --------------------------------------------------------------

 Alpha MOs
 -- Occupied --
-10.2725 -10.2640 -10.2640  -0.8810  -0.7771  -0.6772  -0.5445  -0.5249
 -0.4815  -0.4691  -0.4205  -0.4169  -0.3956

                    Cartesian Multipole Moments
 -----------------------------------------------------------------
    Charge (ESU x 10^10)
                 0.0000
    Dipole Moment (Debye)
         X      -0.0000      Y       0.0000      Z      -0.0996
       Tot       0.0996
    Quadrupole Moments (Debye-Ang)
        XX     -22.3594     XY      -0.2042     YY     -21.2286
        XZ       0.0000     YZ      -0.0000     ZZ     -21.8253

 Total job time:  25.54s(wall), 70.69s(cpu)
        *  Thank you very much for using Q-Chem.  Have a nice day.  *
