 Q-Chem 5.2 (devel), Q-Chem, Inc., Pleasanton, CA (2019)
 Q-Chem 5.2.2 for Intel X86 EM64T Linux

User input:
--------------------------------------------------------------
$rem
   JOBTYPE  sp
   EXCHANGE   omegaB97X-D
   BASIS   6-311+G(2df,2pd)
   max_scf_cycles   250
   geom_opt_max_cycles   1500
   basis2 6-31G*
   scf_algorithm rca_diis
   SYM_IGNORE  TRUE
   print_input   true
   geom_opt_dmax   80
   pop_mulliken false
   XC_GRID 000075000302
$end

$molecule
0 1
C       1.2577293454     -0.2416999796     0.0062244467
C       -0.0000028663     0.6145450366     0.0938500401
H       1.9371620049     0.2841788498     0.6870345211
H       1.7664938221     -0.3628148100     -0.9473207902
H       1.0904952849     -1.2335681466     0.4273936658
C       -1.2577305205     -0.2417068348     0.0062171647
H       -0.0000015888     1.0503140228     -0.9070587438
H       -0.0000074729     1.4430032583     0.8076232176
H       -1.9371474424     0.2841112747     0.6870886303
H       -1.0904642889     -1.2336018027     0.4273114273
H       -1.7665263380     -0.3627602025     -0.9473185607
--------------------------------------------------------------

             Standard Nuclear Orientation (Angstroms)
    I     Atom           X                Y                Z
 ----------------------------------------------------------------
    1      C       1.2577293454    -0.2416999796     0.0062244467
    2      C      -0.0000028663     0.6145450366     0.0938500401
    3      H       1.9371620049     0.2841788498     0.6870345211
    4      H       1.7664938221    -0.3628148100    -0.9473207902
    5      H       1.0904952849    -1.2335681466     0.4273936658
    6      C      -1.2577305205    -0.2417068348     0.0062171647
    7      H      -0.0000015888     1.0503140228    -0.9070587438
    8      H      -0.0000074729     1.4430032583     0.8076232176
    9      H      -1.9371474424     0.2841112747     0.6870886303
   10      H      -1.0904642889    -1.2336018027     0.4273114273
   11      H      -1.7665263380    -0.3627602025    -0.9473185607
 ----------------------------------------------------------------

    7    -119.0743809420      4.91E-06 Convergence criterion met
    5    -119.1183515766      9.63E-06 Convergence criterion met
 Total energy in the final basis set = -119.11835158

                    Orbital Energies (a.u.)
 --------------------------------------------------------------

 Alpha MOs
 -- Occupied --
-10.2733 -10.2631 -10.2631  -0.8839  -0.7770  -0.6774  -0.5469  -0.5256
 -0.4918  -0.4628  -0.4350  -0.3986  -0.3844

                    Cartesian Multipole Moments
 -----------------------------------------------------------------
    Charge (ESU x 10^10)
                -0.0000
    Dipole Moment (Debye)
         X       0.0000      Y       0.1674      Z      -0.0669
       Tot       0.1803
    Quadrupole Moments (Debye-Ang)
        XX     -22.6896     XY      -0.0000     YY     -21.6601
        XZ      -0.0000     YZ       0.5323     ZZ     -21.2353

 Total job time:  36.50s(wall), 100.20s(cpu)
        *  Thank you very much for using Q-Chem.  Have a nice day.  *
