 Q-Chem 5.2 (devel), Q-Chem, Inc., Pleasanton, CA (2019)
 Q-Chem 5.2.2 for Intel X86 EM64T Linux

User input:
--------------------------------------------------------------
$rem
   JOBTYPE  sp
   EXCHANGE   omegaB97X-D
   BASIS   6-311+G(2df,2pd)
   max_scf_cycles   250
   geom_opt_max_cycles   1500
   basis2 6-31G*
   scf_algorithm rca_diis
   SYM_IGNORE  TRUE
   print_input   true
   geom_opt_dmax   80
   pop_mulliken false
   XC_GRID 000075000302
$end

$molecule
0 1
C       1.2640956002     0.0873695718     0.2651470043
C       -0.0000000758     0.0000002441     -0.5816995051
H       1.1763306127     -0.8808140375     0.7683311163
H       1.4339458128     0.8532048381     1.0206183845
H       2.1520502516     -0.0212029695     -0.3584481109
C       -1.2640959349     -0.0873693128     0.2651465691
H       0.2257431108     -0.8467235100     -1.2342752222
H       -0.2257426453     0.8467231507     -1.2342765578
H       -1.4339453313     -0.8532050994     1.0206175487
H       -2.1520510750     0.0212039341     -0.3584476676
H       -1.1763303866     0.8808138564     0.7683314595
--------------------------------------------------------------

             Standard Nuclear Orientation (Angstroms)
    I     Atom           X                Y                Z
 ----------------------------------------------------------------
    1      C       1.2640956002     0.0873695718     0.2651470043
    2      C      -0.0000000758     0.0000002441    -0.5816995051
    3      H       1.1763306127    -0.8808140375     0.7683311163
    4      H       1.4339458128     0.8532048381     1.0206183845
    5      H       2.1520502516    -0.0212029695    -0.3584481109
    6      C      -1.2640959349    -0.0873693128     0.2651465691
    7      H       0.2257431108    -0.8467235100    -1.2342752222
    8      H      -0.2257426453     0.8467231507    -1.2342765578
    9      H      -1.4339453313    -0.8532050994     1.0206175487
   10      H      -2.1520510750     0.0212039341    -0.3584476676
   11      H      -1.1763303866     0.8808138564     0.7683314595
 ----------------------------------------------------------------

    7    -119.0837216348      4.85E-06 Convergence criterion met
    6    -119.1273044695      4.08E-06 Convergence criterion met
 Total energy in the final basis set = -119.12730447

                    Orbital Energies (a.u.)
 --------------------------------------------------------------

 Alpha MOs
 -- Occupied --
-10.2778 -10.2658 -10.2658  -0.8860  -0.7804  -0.6772  -0.5526  -0.5267
 -0.4794  -0.4675  -0.4187  -0.4092  -0.4039

                    Cartesian Multipole Moments
 -----------------------------------------------------------------
    Charge (ESU x 10^10)
                -0.0000
    Dipole Moment (Debye)
         X       0.0000      Y      -0.0000      Z      -0.0624
       Tot       0.0624
    Quadrupole Moments (Debye-Ang)
        XX     -22.0675     XY      -0.1157     YY     -21.5502
        XZ       0.0000     YZ      -0.0000     ZZ     -21.8623

 Total job time:  34.94s(wall), 97.56s(cpu)
        *  Thank you very much for using Q-Chem.  Have a nice day.  *
