 Q-Chem 5.2 (devel), Q-Chem, Inc., Pleasanton, CA (2019)
 Q-Chem 5.2.2 for Intel X86 EM64T Linux

User input:
--------------------------------------------------------------
$rem
   JOBTYPE  sp
   EXCHANGE   omegaB97X-D
   BASIS   6-311+G(2df,2pd)
   max_scf_cycles   250
   geom_opt_max_cycles   1500
   basis2 6-31G*
   scf_algorithm rca_diis
   SYM_IGNORE  TRUE
   print_input   true
   geom_opt_dmax   80
   pop_mulliken false
   XC_GRID 000075000302
$end

$molecule
0 1
C       1.2524329246     -0.2486000801     -0.0750489155
C       -0.0000028477     0.4962357594     0.3714367603
H       1.9899693444     0.5578351006     0.0242968883
H       1.3494847536     -0.6762457649     -1.0690337695
H       1.5301681801     -1.0154864247     0.6487659628
C       -1.2524328283     -0.2486038569     -0.0750610518
H       -0.0000007255     1.2481681591     -0.4196245717
H       -0.0000086101     1.0206379100     1.3313092326
H       -1.9900006376     0.5577894853     0.0243808470
H       -1.5301068158     -1.0155617710     0.6487021917
H       -1.3495027983     -0.6761678508     -1.0690785552
--------------------------------------------------------------

             Standard Nuclear Orientation (Angstroms)
    I     Atom           X                Y                Z
 ----------------------------------------------------------------
    1      C       1.2524329246    -0.2486000801    -0.0750489155
    2      C      -0.0000028477     0.4962357594     0.3714367603
    3      H       1.9899693444     0.5578351006     0.0242968883
    4      H       1.3494847536    -0.6762457649    -1.0690337695
    5      H       1.5301681801    -1.0154864247     0.6487659628
    6      C      -1.2524328283    -0.2486038569    -0.0750610518
    7      H      -0.0000007255     1.2481681591    -0.4196245717
    8      H      -0.0000086101     1.0206379100     1.3313092326
    9      H      -1.9900006376     0.5577894853     0.0243808470
   10      H      -1.5301068158    -1.0155617710     0.6487021917
   11      H      -1.3495027983    -0.6761678508    -1.0690785552
 ----------------------------------------------------------------

    7    -119.0710985038      6.52E-06 Convergence criterion met
    5    -119.1149593613      9.07E-06 Convergence criterion met
 Total energy in the final basis set = -119.11495936

                    Orbital Energies (a.u.)
 --------------------------------------------------------------

 Alpha MOs
 -- Occupied --
-10.2765 -10.2629 -10.2628  -0.8854  -0.7785  -0.6763  -0.5474  -0.5128
 -0.5014  -0.4650  -0.4496  -0.3842  -0.3840

                    Cartesian Multipole Moments
 -----------------------------------------------------------------
    Charge (ESU x 10^10)
                -0.0000
    Dipole Moment (Debye)
         X       0.0000      Y       0.2135      Z      -0.0362
       Tot       0.2165
    Quadrupole Moments (Debye-Ang)
        XX     -23.2051     XY      -0.0000     YY     -21.6577
        XZ       0.0000     YZ       0.5975     ZZ     -20.8219

 Total job time:  37.65s(wall), 102.13s(cpu)
        *  Thank you very much for using Q-Chem.  Have a nice day.  *
