 Q-Chem 5.3 (devel), Q-Chem, Inc., Pleasanton, CA (2020)
 Q-Chem 5.3.0 for Intel X86 EM64T Linux

User input:
--------------------------------------------------------------
$rem
   JOBTYPE  sp
   EXCHANGE   omegaB97X-D
   BASIS   6-311+G(2df,2pd)
   max_scf_cycles   250
   geom_opt_max_cycles   1500
   basis2 6-31G*
   scf_algorithm rca_diis
   SYM_IGNORE  TRUE
   print_input   true
   geom_opt_dmax   80
   pop_mulliken false
   XC_GRID 000075000302
$end

$molecule
0 1
C       1.2483902892     0.2385344798     -0.1135115865
C       -0.0000032524     -0.3547288572     0.5285773010
H       1.2309914082     0.8756066969     -0.9924146389
H       1.7477732386     -0.7029325627     -0.3781808191
H       1.8783437322     0.7196489589     0.6353611785
C       -1.2483869928     0.2385384355     -0.1135252549
H       -0.0000088187     -0.6424973702     1.5839876235
H       -0.0000011168     -1.2645312113     -0.0739805407
H       -1.2309690614     0.8755238450     -0.9924921319
H       -1.8782937649     0.7197616020     0.6353161682
H       -1.7478357217     -0.7029233506     -0.3780922802
$end
--------------------------------------------------------------

             Standard Nuclear Orientation (Angstroms)
    I     Atom           X                Y                Z
 ----------------------------------------------------------------
    1      C       1.2483902892     0.2385344798    -0.1135115865
    2      C      -0.0000032524    -0.3547288572     0.5285773010
    3      H       1.2309914082     0.8756066969    -0.9924146389
    4      H       1.7477732386    -0.7029325627    -0.3781808191
    5      H       1.8783437322     0.7196489589     0.6353611785
    6      C      -1.2483869928     0.2385384355    -0.1135252549
    7      H      -0.0000088187    -0.6424973702     1.5839876235
    8      H      -0.0000011168    -1.2645312113    -0.0739805407
    9      H      -1.2309690614     0.8755238450    -0.9924921319
   10      H      -1.8782937649     0.7197616020     0.6353161682
   11      H      -1.7478357217    -0.7029233506    -0.3780922802
 ----------------------------------------------------------------

    7    -119.0513313611      6.65E-06 Convergence criterion met
    5    -119.0962573879      9.20E-06 Convergence criterion met
 Total energy in the final basis set = -119.09625739

                    Orbital Energies (a.u.)
 --------------------------------------------------------------

 Alpha MOs
 -- Occupied --
-10.2743 -10.2619 -10.2619  -0.8878  -0.7783  -0.6749  -0.5517  -0.5117
 -0.5004  -0.4651  -0.4510  -0.3820  -0.3718

                    Cartesian Multipole Moments
 -----------------------------------------------------------------
    Charge (ESU x 10^10)
                -0.0000
    Dipole Moment (Debye)
         X      -0.0000      Y      -0.2055      Z       0.0016
       Tot       0.2055
    Quadrupole Moments (Debye-Ang)
        XX     -23.3981     XY       0.0000     YY     -21.5786
        XZ       0.0000     YZ      -0.4042     ZZ     -20.7919

 Total job time:  24.67s(wall), 66.72s(cpu)
        *  Thank you very much for using Q-Chem.  Have a nice day.  *
