 Q-Chem 5.2 (devel), Q-Chem, Inc., Pleasanton, CA (2019)
 Q-Chem 5.2.2 for Intel X86 EM64T Linux

User input:
--------------------------------------------------------------
$rem
   JOBTYPE  sp
   EXCHANGE   omegaB97X-D
   BASIS   6-311+G(2df,2pd)
   max_scf_cycles   250
   geom_opt_max_cycles   1500
   basis2 6-31G*
   scf_algorithm rca_diis
   SYM_IGNORE  TRUE
   print_input   true
   geom_opt_dmax   80
   pop_mulliken false
   XC_GRID 000075000302
$end

$molecule
0 1
C       1.2687965893     0.0000000023     0.2737415746
C       0.0000002019     -0.0000000078     -0.5499000287
H       1.3058808547     -0.8872028135     0.9243701861
H       1.3058808945     0.8872027789     0.9243700930
H       2.1402827029     -0.0000000230     -0.3248481551
C       -1.2687960624     0.0000001464     0.2737413252
H       0.0000002314     -1.0466201665     -1.3521614296
H       0.0000002264     1.0466205063     -1.3521617383
H       -1.3058806673     -0.8872052750     0.9243719009
H       -2.1402844422     0.0000007956     -0.3248499189
H       -1.3058805897     0.8872047223     0.9243712098
--------------------------------------------------------------

             Standard Nuclear Orientation (Angstroms)
    I     Atom           X                Y                Z
 ----------------------------------------------------------------
    1      C       1.2687965893     0.0000000023     0.2737415746
    2      C       0.0000002019    -0.0000000078    -0.5499000287
    3      H       1.3058808547    -0.8872028135     0.9243701861
    4      H       1.3058808945     0.8872027789     0.9243700930
    5      H       2.1402827029    -0.0000000230    -0.3248481551
    6      C      -1.2687960624     0.0000001464     0.2737413252
    7      H       0.0000002314    -1.0466201665    -1.3521614296
    8      H       0.0000002264     1.0466205063    -1.3521617383
    9      H      -1.3058806673    -0.8872052750     0.9243719009
   10      H      -2.1402844422     0.0000007956    -0.3248499189
   11      H      -1.3058805897     0.8872047223     0.9243712098
 ----------------------------------------------------------------

    7    -119.0616722681      5.00E-06 Convergence criterion met
    6    -119.1038321984      4.10E-06 Convergence criterion met
 Total energy in the final basis set = -119.10383220

                    Orbital Energies (a.u.)
 --------------------------------------------------------------

 Alpha MOs
 -- Occupied --
-10.3181 -10.2683 -10.2683  -0.8789  -0.7851  -0.6524  -0.5327  -0.5312
 -0.4870  -0.4656  -0.4321  -0.4064  -0.3810

                    Cartesian Multipole Moments
 -----------------------------------------------------------------
    Charge (ESU x 10^10)
                -0.0000
    Dipole Moment (Debye)
         X       0.0000      Y       0.0000      Z       0.2711
       Tot       0.2711
    Quadrupole Moments (Debye-Ang)
        XX     -21.8613     XY      -0.0000     YY     -21.7455
        XZ       0.0000     YZ       0.0000     ZZ     -22.6053

 Total job time:  34.29s(wall), 95.46s(cpu)
        *  Thank you very much for using Q-Chem.  Have a nice day.  *
