 Q-Chem 5.3 (devel), Q-Chem, Inc., Pleasanton, CA (2020)
 Q-Chem 5.3.0 for Intel X86 EM64T Linux

User input:
--------------------------------------------------------------
$rem
   JOBTYPE  sp
   EXCHANGE   omegaB97X-D
   BASIS   6-311+G(2df,2pd)
   max_scf_cycles   250
   geom_opt_max_cycles   1500
   basis2 6-31G*
   scf_algorithm rca_diis
   SYM_IGNORE  TRUE
   print_input   true
   geom_opt_dmax   80
   pop_mulliken false
   XC_GRID 000075000302
$end

$molecule
0 1
C       1.2594717695     -0.0000009082     0.2922542944
C       0.0000000823     -0.0000010017     -0.5622288030
H       1.3017399323     -0.8387571949     0.8988555009
H       1.3017399183     0.8387586090     0.8988575088
H       2.2613893401     -0.0000005828     -0.4053351320
C       -1.2594712334     -0.0000011041     0.2922548187
H       0.0000000320     -0.8908899742     -1.2329939463
H       -0.0000000882     0.8908908961     -1.2329957961
H       -1.3017393038     -0.8387560588     0.8988549701
H       -2.2613911227     -0.0000000250     -0.4053359902
H       -1.3017393870     0.8387580105     0.8988575935
$end
--------------------------------------------------------------

             Standard Nuclear Orientation (Angstroms)
    I     Atom           X                Y                Z
 ----------------------------------------------------------------
    1      C       1.2594717695    -0.0000009082     0.2922542944
    2      C       0.0000000823    -0.0000010017    -0.5622288030
    3      H       1.3017399323    -0.8387571949     0.8988555009
    4      H       1.3017399183     0.8387586090     0.8988575088
    5      H       2.2613893401    -0.0000005828    -0.4053351320
    6      C      -1.2594712334    -0.0000011041     0.2922548187
    7      H       0.0000000320    -0.8908899742    -1.2329939463
    8      H      -0.0000000882     0.8908908961    -1.2329957961
    9      H      -1.3017393038    -0.8387560588     0.8988549701
   10      H      -2.2613911227    -0.0000000250    -0.4053359902
   11      H      -1.3017393870     0.8387580105     0.8988575935
 ----------------------------------------------------------------

    7    -119.0778007741      4.20E-06 Convergence criterion met
    6    -119.1211973830      3.60E-06 Convergence criterion met
 Total energy in the final basis set = -119.12119738

                    Orbital Energies (a.u.)
 --------------------------------------------------------------

 Alpha MOs
 -- Occupied --
-10.2792 -10.2675 -10.2674  -0.8834  -0.7782  -0.6797  -0.5526  -0.5065
 -0.4851  -0.4797  -0.4167  -0.4111  -0.4051

                    Cartesian Multipole Moments
 -----------------------------------------------------------------
    Charge (ESU x 10^10)
                 0.0000
    Dipole Moment (Debye)
         X       0.0000      Y      -0.0000      Z       0.1415
       Tot       0.1415
    Quadrupole Moments (Debye-Ang)
        XX     -22.7038     XY      -0.0000     YY     -21.4159
        XZ      -0.0000     YZ      -0.0000     ZZ     -21.7284

 Total job time:  26.93s(wall), 73.33s(cpu)
        *  Thank you very much for using Q-Chem.  Have a nice day.  *
