 Q-Chem 5.2 (devel), Q-Chem, Inc., Pleasanton, CA (2019)
 Q-Chem 5.2.2 for Intel X86 EM64T Linux

User input:
--------------------------------------------------------------
$rem
   JOBTYPE  sp
   EXCHANGE   omegaB97X-D
   BASIS   6-311+G(2df,2pd)
   max_scf_cycles   250
   geom_opt_max_cycles   1500
   basis2 6-31G*
   scf_algorithm rca_diis
   SYM_IGNORE  TRUE
   print_input   true
   geom_opt_dmax   80
   pop_mulliken false
   XC_GRID 000075000302
$end

$molecule
0 1
C       1.1598958363     0.5102629473     0.2656140234
C       0.0000026373     -0.0000117122     -0.5811390813
H       1.2042609822     1.6038009157     0.2995101589
H       2.0983908436     0.1568382991     -0.1583653909
H       1.1020872433     0.1414097681     1.2901796656
C       -1.1598968159     -0.5102549099     0.2656241695
H       0.2613204591     -0.8347693034     -1.2358531836
H       -0.2613092749     0.8347207906     -1.2358866422
H       -2.0983827649     -0.1567700100     -0.1583269049
H       -1.1020536840     -0.1414334488     1.2901992198
H       -1.2043155227     -1.6037926704     0.2994889847
--------------------------------------------------------------

             Standard Nuclear Orientation (Angstroms)
    I     Atom           X                Y                Z
 ----------------------------------------------------------------
    1      C       1.1598958363     0.5102629473     0.2656140234
    2      C       0.0000026373    -0.0000117122    -0.5811390813
    3      H       1.2042609822     1.6038009157     0.2995101589
    4      H       2.0983908436     0.1568382991    -0.1583653909
    5      H       1.1020872433     0.1414097681     1.2901796656
    6      C      -1.1598968159    -0.5102549099     0.2656241695
    7      H       0.2613204591    -0.8347693034    -1.2358531836
    8      H      -0.2613092749     0.8347207906    -1.2358866422
    9      H      -2.0983827649    -0.1567700100    -0.1583269049
   10      H      -1.1020536840    -0.1414334488     1.2901992198
   11      H      -1.2043155227    -1.6037926704     0.2994889847
 ----------------------------------------------------------------

    7    -119.0915574945      4.37E-06 Convergence criterion met
    6    -119.1348736387      3.92E-06 Convergence criterion met
 Total energy in the final basis set = -119.13487364

                    Orbital Energies (a.u.)
 --------------------------------------------------------------

 Alpha MOs
 -- Occupied --
-10.2719 -10.2636 -10.2636  -0.8810  -0.7768  -0.6773  -0.5444  -0.5262
 -0.4797  -0.4699  -0.4214  -0.4161  -0.3934

                    Cartesian Multipole Moments
 -----------------------------------------------------------------
    Charge (ESU x 10^10)
                 0.0000
    Dipole Moment (Debye)
         X       0.0000      Y       0.0000      Z      -0.0991
       Tot       0.0991
    Quadrupole Moments (Debye-Ang)
        XX     -22.3984     XY      -0.2367     YY     -21.2147
        XZ       0.0000     YZ      -0.0000     ZZ     -21.8227

 Total job time:  41.08s(wall), 113.59s(cpu)
        *  Thank you very much for using Q-Chem.  Have a nice day.  *
