 Q-Chem 5.3 (devel), Q-Chem, Inc., Pleasanton, CA (2020)
 Q-Chem 5.3.0 for Intel X86 EM64T Linux

User input:
--------------------------------------------------------------
$rem
   JOBTYPE  sp
   EXCHANGE   omegaB97X-D
   BASIS   6-311+G(2df,2pd)
   max_scf_cycles   250
   geom_opt_max_cycles   1500
   basis2 6-31G*
   scf_algorithm rca_diis
   SYM_IGNORE  TRUE
   print_input   true
   geom_opt_dmax   80
   pop_mulliken false
   XC_GRID 000075000302
$end

$molecule
0 1
C       1.2645392483     0.0000007179     0.2592892723
C       -0.0000004299     0.0000002102     -0.5973492416
H       1.3126597593     -0.9058180122     0.8655990852
H       1.3126570854     0.9058190079     0.8655997519
H       2.1789225794     -0.0000023702     -0.3380370419
C       -1.2645401034     -0.0000005180     0.2592884653
H       0.0000004113     -0.9193593992     -1.1832554358
H       0.0000002965     0.9193597016     -1.1832556422
H       -1.3126574790     -0.9058160938     0.8656031823
H       -2.1789217377     0.0000021136     -0.3380401776
H       -1.3126596907     0.9058153084     0.8656028010
$end
--------------------------------------------------------------

             Standard Nuclear Orientation (Angstroms)
    I     Atom           X                Y                Z
 ----------------------------------------------------------------
    1      C       1.2645392483     0.0000007179     0.2592892723
    2      C      -0.0000004299     0.0000002102    -0.5973492416
    3      H       1.3126597593    -0.9058180122     0.8655990852
    4      H       1.3126570854     0.9058190079     0.8655997519
    5      H       2.1789225794    -0.0000023702    -0.3380370419
    6      C      -1.2645401034    -0.0000005180     0.2592884653
    7      H       0.0000004113    -0.9193593992    -1.1832554358
    8      H       0.0000002965     0.9193597016    -1.1832556422
    9      H      -1.3126574790    -0.9058160938     0.8656031823
   10      H      -2.1789217377     0.0000021136    -0.3380401776
   11      H      -1.3126596907     0.9058153084     0.8656028010
 ----------------------------------------------------------------

    7    -119.0996205046      5.00E-06 Convergence criterion met
    5    -119.1426760665      9.72E-06 Convergence criterion met
 Total energy in the final basis set = -119.14267607

                    Orbital Energies (a.u.)
 --------------------------------------------------------------

 Alpha MOs
 -- Occupied --
-10.2748 -10.2644 -10.2644  -0.8818  -0.7769  -0.6743  -0.5575  -0.5192
 -0.4728  -0.4718  -0.4186  -0.4180  -0.4043

                    Cartesian Multipole Moments
 -----------------------------------------------------------------
    Charge (ESU x 10^10)
                -0.0000
    Dipole Moment (Debye)
         X       0.0000      Y      -0.0000      Z      -0.0910
       Tot       0.0910
    Quadrupole Moments (Debye-Ang)
        XX     -22.1330     XY      -0.0000     YY     -20.8796
        XZ      -0.0000     YZ       0.0000     ZZ     -22.4523

 Total job time:  24.53s(wall), 66.29s(cpu)
        *  Thank you very much for using Q-Chem.  Have a nice day.  *
