 Q-Chem 5.2 (devel), Q-Chem, Inc., Pleasanton, CA (2019)
 Q-Chem 5.2.2 for Intel X86 EM64T Linux

User input:
--------------------------------------------------------------
$rem
   JOBTYPE  sp
   EXCHANGE   omegaB97X-D
   BASIS   6-311+G(2df,2pd)
   max_scf_cycles   250
   geom_opt_max_cycles   1500
   basis2 6-31G*
   scf_algorithm rca_diis
   SYM_IGNORE  TRUE
   print_input   true
   geom_opt_dmax   80
   pop_mulliken false
   XC_GRID 000075000302
$end

$molecule
0 1
C       1.1541595340     0.0000000827     0.2444838055
C       -0.0226796895     -0.0000003692     -0.5731710887
H       1.4216423666     -0.8145982936     0.9286153977
H       1.4216417883     0.8145985909     0.9286154320
H       2.1626137138     -0.0000000162     -0.1871642864
C       -1.3862883517     -0.0000006601     0.2923239981
H       -0.1842576772     -0.8636999074     -1.2225341702
H       -0.1842574223     0.8636994223     -1.2225339379
H       -1.1396216324     -0.9078870173     0.8365162568
H       -2.1033294662     0.0000023074     -0.5206224160
H       -1.1396232238     0.9078865266     0.8365160279
--------------------------------------------------------------

             Standard Nuclear Orientation (Angstroms)
    I     Atom           X                Y                Z
 ----------------------------------------------------------------
    1      C       1.1541595340     0.0000000827     0.2444838055
    2      C      -0.0226796895    -0.0000003692    -0.5731710887
    3      H       1.4216423666    -0.8145982936     0.9286153977
    4      H       1.4216417883     0.8145985909     0.9286154320
    5      H       2.1626137138    -0.0000000162    -0.1871642864
    6      C      -1.3862883517    -0.0000006601     0.2923239981
    7      H      -0.1842576772    -0.8636999074    -1.2225341702
    8      H      -0.1842574223     0.8636994223    -1.2225339379
    9      H      -1.1396216324    -0.9078870173     0.8365162568
   10      H      -2.1033294662     0.0000023074    -0.5206224160
   11      H      -1.1396232238     0.9078865266     0.8365160279
 ----------------------------------------------------------------

    7    -119.0471488888      6.42E-06 Convergence criterion met
    6    -119.0932847584      5.44E-06 Convergence criterion met
 Total energy in the final basis set = -119.09328476

                    Orbital Energies (a.u.)
 --------------------------------------------------------------

 Alpha MOs
 -- Occupied --
-10.2766 -10.2684 -10.2660  -0.8910  -0.7860  -0.6812  -0.5516  -0.5508
 -0.4686  -0.4609  -0.4566  -0.4020  -0.3669

                    Cartesian Multipole Moments
 -----------------------------------------------------------------
    Charge (ESU x 10^10)
                 0.0000
    Dipole Moment (Debye)
         X       0.3692      Y       0.0000      Z      -0.1986
       Tot       0.4193
    Quadrupole Moments (Debye-Ang)
        XX     -22.3571     XY      -0.0000     YY     -21.5875
        XZ       2.0209     YZ      -0.0000     ZZ     -22.1670

 Total job time:  35.06s(wall), 97.68s(cpu)
        *  Thank you very much for using Q-Chem.  Have a nice day.  *
