 Q-Chem 5.2 (devel), Q-Chem, Inc., Pleasanton, CA (2019)
 Q-Chem 5.2.2 for Intel X86 EM64T Linux

User input:
--------------------------------------------------------------
$rem
   JOBTYPE  sp
   EXCHANGE   omegaB97X-D
   BASIS   6-311+G(2df,2pd)
   max_scf_cycles   250
   geom_opt_max_cycles   1500
   basis2 6-31G*
   scf_algorithm rca_diis
   SYM_IGNORE  TRUE
   print_input   true
   geom_opt_dmax   80
   pop_mulliken false
   XC_GRID 000075000302
$end

$molecule
0 1
C       1.2672054008     -0.0642940703     0.2597354825
C       0.0000004009     -0.0607102314     -0.5869638080
H       1.3009101789     -0.8238136477     0.8249236822
H       1.3094256047     0.9388620981     0.9812657377
H       2.1645325325     -0.0506429830     -0.3597115928
C       -1.2672026533     -0.0642951970     0.2597383563
H       0.0000002441     -0.8440353735     -1.1828509013
H       -0.0000004311     0.9045207659     -1.3015624664
H       -1.3009065086     -0.8238065018     0.8249200155
H       -2.1645416428     -0.0506435454     -0.3597157021
H       -1.3094231867     0.9388593520     0.9812662153
--------------------------------------------------------------

             Standard Nuclear Orientation (Angstroms)
    I     Atom           X                Y                Z
 ----------------------------------------------------------------
    1      C       1.2672054008    -0.0642940703     0.2597354825
    2      C       0.0000004009    -0.0607102314    -0.5869638080
    3      H       1.3009101789    -0.8238136477     0.8249236822
    4      H       1.3094256047     0.9388620981     0.9812657377
    5      H       2.1645325325    -0.0506429830    -0.3597115928
    6      C      -1.2672026533    -0.0642951970     0.2597383563
    7      H       0.0000002441    -0.8440353735    -1.1828509013
    8      H      -0.0000004311     0.9045207659    -1.3015624664
    9      H      -1.3009065086    -0.8238065018     0.8249200155
   10      H      -2.1645416428    -0.0506435454    -0.3597157021
   11      H      -1.3094231867     0.9388593520     0.9812662153
 ----------------------------------------------------------------

    7    -119.0332825507      4.99E-06 Convergence criterion met
    5    -119.0790502711      9.82E-06 Convergence criterion met
 Total energy in the final basis set = -119.07905027

                    Orbital Energies (a.u.)
 --------------------------------------------------------------

 Alpha MOs
 -- Occupied --
-10.2745 -10.2638 -10.2638  -0.8868  -0.7848  -0.6873  -0.5486  -0.5262
 -0.5023  -0.4465  -0.4191  -0.4172  -0.4047

                    Cartesian Multipole Moments
 -----------------------------------------------------------------
    Charge (ESU x 10^10)
                -0.0000
    Dipole Moment (Debye)
         X       0.0000      Y      -0.4483      Z      -0.1250
       Tot       0.4654
    Quadrupole Moments (Debye-Ang)
        XX     -22.1368     XY      -0.0000     YY     -21.3116
        XZ      -0.0000     YZ       0.0091     ZZ     -21.9231

 Total job time:  31.84s(wall), 88.42s(cpu)
        *  Thank you very much for using Q-Chem.  Have a nice day.  *
