 Q-Chem 5.2 (devel), Q-Chem, Inc., Pleasanton, CA (2019)
 Q-Chem 5.2.2 for Intel X86 EM64T Linux

User input:
--------------------------------------------------------------
$rem
   JOBTYPE  sp
   EXCHANGE   omegaB97X-D
   BASIS   6-311+G(2df,2pd)
   max_scf_cycles   250
   geom_opt_max_cycles   1500
   basis2 6-31G*
   scf_algorithm rca_diis
   SYM_IGNORE  TRUE
   print_input   true
   geom_opt_dmax   80
   pop_mulliken false
   XC_GRID 000075000302
$end

$molecule
0 1
C       1.2899374630     0.0000000482     0.3101372122
C       0.0000005335     0.0000000904     -0.5553491273
H       1.2017185572     -0.9187973654     0.8883367596
H       1.2017186550     0.9187974477     0.8883368076
H       2.0933618944     0.0000000741     -0.4231830548
C       -1.2899361795     -0.0000000232     0.3101367845
H       0.0000003110     -0.8723292676     -1.2154311808
H       0.0000006094     0.8723293405     -1.2154313439
H       -1.2017200181     -0.9187974340     0.8883368088
H       -2.0933625492     0.0000004044     -0.4231815526
H       -1.2017193372     0.9187973508     0.8883369055
--------------------------------------------------------------

             Standard Nuclear Orientation (Angstroms)
    I     Atom           X                Y                Z
 ----------------------------------------------------------------
    1      C       1.2899374630     0.0000000482     0.3101372122
    2      C       0.0000005335     0.0000000904    -0.5553491273
    3      H       1.2017185572    -0.9187973654     0.8883367596
    4      H       1.2017186550     0.9187974477     0.8883368076
    5      H       2.0933618944     0.0000000741    -0.4231830548
    6      C      -1.2899361795    -0.0000000232     0.3101367845
    7      H       0.0000003110    -0.8723292676    -1.2154311808
    8      H       0.0000006094     0.8723293405    -1.2154313439
    9      H      -1.2017200181    -0.9187974340     0.8883368088
   10      H      -2.0933625492     0.0000004044    -0.4231815526
   11      H      -1.2017193372     0.9187973508     0.8883369055
 ----------------------------------------------------------------

    7    -119.0884645189      5.26E-06 Convergence criterion met
    6    -119.1318538748      4.30E-06 Convergence criterion met
 Total energy in the final basis set = -119.13185387

                    Orbital Energies (a.u.)
 --------------------------------------------------------------

 Alpha MOs
 -- Occupied --
-10.2715 -10.2672 -10.2672  -0.8803  -0.7759  -0.6672  -0.5539  -0.5262
 -0.4842  -0.4759  -0.4116  -0.4096  -0.4008

                    Cartesian Multipole Moments
 -----------------------------------------------------------------
    Charge (ESU x 10^10)
                -0.0000
    Dipole Moment (Debye)
         X      -0.0000      Y      -0.0000      Z      -0.2250
       Tot       0.2250
    Quadrupole Moments (Debye-Ang)
        XX     -23.2274     XY       0.0000     YY     -21.0192
        XZ      -0.0000     YZ      -0.0000     ZZ     -22.0866

 Total job time:  36.22s(wall), 100.46s(cpu)
        *  Thank you very much for using Q-Chem.  Have a nice day.  *
