 Q-Chem 5.3 (devel), Q-Chem, Inc., Pleasanton, CA (2020)
 Q-Chem 5.3.0 for Intel X86 EM64T Linux

User input:
--------------------------------------------------------------
$rem
   JOBTYPE  sp
   EXCHANGE   omegaB97X-D
   BASIS   6-311+G(2df,2pd)
   max_scf_cycles   250
   geom_opt_max_cycles   1500
   basis2 6-31G*
   scf_algorithm rca_diis
   SYM_IGNORE  TRUE
   print_input   true
   geom_opt_dmax   80
   pop_mulliken false
   XC_GRID 000075000302
$end

$molecule
0 1
C       0.8766387266     0.9149141657     0.2518977841
C       0.0000082265     -0.0000199486     -0.5949432731
H       1.9200956547     0.5832649948     0.3329184584
H       0.4613105521     0.9384344193     1.2549006076
H       0.8702209700     1.9380985612     -0.1251635747
C       -0.8766476951     -0.9148971157     0.2519325129
H       0.4886974344     -0.7282142442     -1.2466139085
H       -0.4886589684     0.7281299512     -1.2466782856
H       -0.4612436685     -0.9384843927     1.2549038748
H       -0.8703521491     -1.9380742956     -0.1251501626
H       -1.9200691439     -0.5831514292     0.3330409857
$end
--------------------------------------------------------------

             Standard Nuclear Orientation (Angstroms)
    I     Atom           X                Y                Z
 ----------------------------------------------------------------
    1      C       0.8766387266     0.9149141657     0.2518977841
    2      C       0.0000082265    -0.0000199486    -0.5949432731
    3      H       1.9200956547     0.5832649948     0.3329184584
    4      H       0.4613105521     0.9384344193     1.2549006076
    5      H       0.8702209700     1.9380985612    -0.1251635747
    6      C      -0.8766476951    -0.9148971157     0.2519325129
    7      H       0.4886974344    -0.7282142442    -1.2466139085
    8      H      -0.4886589684     0.7281299512    -1.2466782856
    9      H      -0.4612436685    -0.9384843927     1.2549038748
   10      H      -0.8703521491    -1.9380742956    -0.1251501626
   11      H      -1.9200691439    -0.5831514292     0.3330409857
 ----------------------------------------------------------------

    7    -119.0849505719      4.45E-06 Convergence criterion met
    6    -119.1286713027      4.15E-06 Convergence criterion met
 Total energy in the final basis set = -119.12867130

                    Orbital Energies (a.u.)
 --------------------------------------------------------------

 Alpha MOs
 -- Occupied --
-10.2717 -10.2646 -10.2646  -0.8830  -0.7773  -0.6784  -0.5459  -0.5314
 -0.4748  -0.4706  -0.4217  -0.4157  -0.3921

                    Cartesian Multipole Moments
 -----------------------------------------------------------------
    Charge (ESU x 10^10)
                -0.0000
    Dipole Moment (Debye)
         X       0.0000      Y      -0.0000      Z      -0.0461
       Tot       0.0461
    Quadrupole Moments (Debye-Ang)
        XX     -22.1092     XY      -0.4805     YY     -21.3831
        XZ       0.0000     YZ      -0.0000     ZZ     -22.0042

 Total job time:  26.02s(wall), 71.57s(cpu)
        *  Thank you very much for using Q-Chem.  Have a nice day.  *
