 Q-Chem 5.3 (devel), Q-Chem, Inc., Pleasanton, CA (2020)
 Q-Chem 5.3.0 for Intel X86 EM64T Linux

User input:
--------------------------------------------------------------
$rem
   JOBTYPE  sp
   EXCHANGE   omegaB97X-D
   BASIS   6-311+G(2df,2pd)
   max_scf_cycles   250
   geom_opt_max_cycles   1500
   basis2 6-31G*
   scf_algorithm rca_diis
   SYM_IGNORE  TRUE
   print_input   true
   geom_opt_dmax   80
   pop_mulliken false
   XC_GRID 000075000302
$end

$molecule
0 1
C       1.2672005939     0.0182650862     0.2591456589
C       -0.0000001499     0.0179905891     -0.5875671506
H       1.3551353602     -0.8705739396     0.8897195378
H       1.2555324178     0.8879205805     0.9168137543
H       2.1629298465     -0.0587226052     -0.3579965243
C       -1.2672009894     0.0182653194     0.2591454247
H       -0.0000000252     -0.8597385835     -1.2375048670
H       -0.0000000012     0.8879700453     -1.2492484281
H       -1.3551357894     -0.8705730132     0.8897203349
H       -2.1629295734     -0.0587226744     -0.3579975321
H       -1.2555317505     0.8879198615     0.9168148103
$end
--------------------------------------------------------------

             Standard Nuclear Orientation (Angstroms)
    I     Atom           X                Y                Z
 ----------------------------------------------------------------
    1      C       1.2672005939     0.0182650862     0.2591456589
    2      C      -0.0000001499     0.0179905891    -0.5875671506
    3      H       1.3551353602    -0.8705739396     0.8897195378
    4      H       1.2555324178     0.8879205805     0.9168137543
    5      H       2.1629298465    -0.0587226052    -0.3579965243
    6      C      -1.2672009894     0.0182653194     0.2591454247
    7      H      -0.0000000252    -0.8597385835    -1.2375048670
    8      H      -0.0000000012     0.8879700453    -1.2492484281
    9      H      -1.3551357894    -0.8705730132     0.8897203349
   10      H      -2.1629295734    -0.0587226744    -0.3579975321
   11      H      -1.2555317505     0.8879198615     0.9168148103
 ----------------------------------------------------------------

    7    -119.0995137739      4.76E-06 Convergence criterion met
    6    -119.1426205677      3.86E-06 Convergence criterion met
 Total energy in the final basis set = -119.14262057

                    Orbital Energies (a.u.)
 --------------------------------------------------------------

 Alpha MOs
 -- Occupied --
-10.2741 -10.2652 -10.2652  -0.8814  -0.7775  -0.6781  -0.5497  -0.5210
 -0.4835  -0.4659  -0.4177  -0.4149  -0.4065

                    Cartesian Multipole Moments
 -----------------------------------------------------------------
    Charge (ESU x 10^10)
                -0.0000
    Dipole Moment (Debye)
         X       0.0000      Y      -0.0914      Z      -0.0836
       Tot       0.1239
    Quadrupole Moments (Debye-Ang)
        XX     -22.1663     XY       0.0000     YY     -21.3681
        XZ       0.0000     YZ       0.1596     ZZ     -21.8586

 Total job time:  26.78s(wall), 73.08s(cpu)
        *  Thank you very much for using Q-Chem.  Have a nice day.  *
