 Q-Chem 5.2 (devel), Q-Chem, Inc., Pleasanton, CA (2019)
 Q-Chem 5.2.2 for Intel X86 EM64T Linux

User input:
--------------------------------------------------------------
$rem
   JOBTYPE  sp
   EXCHANGE   omegaB97X-D
   BASIS   6-311+G(2df,2pd)
   max_scf_cycles   250
   geom_opt_max_cycles   1500
   basis2 6-31G*
   scf_algorithm rca_diis
   SYM_IGNORE  TRUE
   print_input   true
   geom_opt_dmax   80
   pop_mulliken false
   XC_GRID 000075000302
$end

$molecule
0 1
C       1.2746755908     -0.0000000091     0.2644955243
C       0.0062648980     -0.0000000406     -0.5872248695
H       1.3081762621     -0.8444248378     0.8808421038
H       1.3081762305     0.8444247945     0.8808421006
H       2.1404101634     0.0000000063     -0.3334108996
C       -1.2597162929     -0.0000001168     0.2544803907
H       0.0080332439     -0.8738724076     -1.2430442178
H       0.0080331560     0.8738724170     -1.2430442640
H       -1.3026188591     -0.9168365542     0.9268521988
H       -2.1888155502     0.0000006236     -0.3865955192
H       -1.3026189032     0.9168367906     0.9268524707
--------------------------------------------------------------

             Standard Nuclear Orientation (Angstroms)
    I     Atom           X                Y                Z
 ----------------------------------------------------------------
    1      C       1.2746755908    -0.0000000091     0.2644955243
    2      C       0.0062648980    -0.0000000406    -0.5872248695
    3      H       1.3081762621    -0.8444248378     0.8808421038
    4      H       1.3081762305     0.8444247945     0.8808421006
    5      H       2.1404101634     0.0000000063    -0.3334108996
    6      C      -1.2597162929    -0.0000001168     0.2544803907
    7      H       0.0080332439    -0.8738724076    -1.2430442178
    8      H       0.0080331560     0.8738724170    -1.2430442640
    9      H      -1.3026188591    -0.9168365542     0.9268521988
   10      H      -2.1888155502     0.0000006236    -0.3865955192
   11      H      -1.3026189032     0.9168367906     0.9268524707
 ----------------------------------------------------------------

    7    -119.0959442207      4.62E-06 Convergence criterion met
    6    -119.1391243064      4.12E-06 Convergence criterion met
 Total energy in the final basis set = -119.13912431

                    Orbital Energies (a.u.)
 --------------------------------------------------------------

 Alpha MOs
 -- Occupied --
-10.2786 -10.2741 -10.2510  -0.8818  -0.7781  -0.6771  -0.5464  -0.5249
 -0.4825  -0.4641  -0.4219  -0.4143  -0.4069

                    Cartesian Multipole Moments
 -----------------------------------------------------------------
    Charge (ESU x 10^10)
                 0.0000
    Dipole Moment (Debye)
         X       0.0976      Y      -0.0000      Z      -0.0891
       Tot       0.1321
    Quadrupole Moments (Debye-Ang)
        XX     -22.1647     XY      -0.0000     YY     -21.3611
        XZ       0.0985     YZ      -0.0000     ZZ     -21.8369

 Total job time:  34.56s(wall), 96.56s(cpu)
        *  Thank you very much for using Q-Chem.  Have a nice day.  *
