 Q-Chem 5.3 (devel), Q-Chem, Inc., Pleasanton, CA (2020)
 Q-Chem 5.3.0 for Intel X86 EM64T Linux

User input:
--------------------------------------------------------------
$rem
   JOBTYPE  sp
   EXCHANGE   omegaB97X-D
   BASIS   6-311+G(2df,2pd)
   max_scf_cycles   250
   geom_opt_max_cycles   1500
   basis2 6-31G*
   scf_algorithm rca_diis
   SYM_IGNORE  TRUE
   print_input   true
   geom_opt_dmax   80
   pop_mulliken false
   XC_GRID 000075000302
$end

$molecule
0 1
C       1.2514550702     -0.2471858229     -0.0858880989
C       -0.0000027320     0.4648455542     0.4136924196
H       1.9485344584     0.6005337393     -0.0838049040
H       1.3034776616     -0.7274973247     -1.0587482942
H       1.6209553108     -0.9544578265     0.6573196793
C       -1.2514543949     -0.2471889543     -0.0859010394
H       -0.0000004678     1.2606122638     -0.3331930698
H       -0.0000087578     0.9318016325     1.4028258605
H       -1.9485747090     0.6004954413     -0.0837185445
H       -1.6208924638     -0.9545411031     0.6572620714
H       -1.3034890364     -0.7274169336     -1.0588010611
$end
--------------------------------------------------------------

             Standard Nuclear Orientation (Angstroms)
    I     Atom           X                Y                Z
 ----------------------------------------------------------------
    1      C       1.2514550702    -0.2471858229    -0.0858880989
    2      C      -0.0000027320     0.4648455542     0.4136924196
    3      H       1.9485344584     0.6005337393    -0.0838049040
    4      H       1.3034776616    -0.7274973247    -1.0587482942
    5      H       1.6209553108    -0.9544578265     0.6573196793
    6      C      -1.2514543949    -0.2471889543    -0.0859010394
    7      H      -0.0000004678     1.2606122638    -0.3331930698
    8      H      -0.0000087578     0.9318016325     1.4028258605
    9      H      -1.9485747090     0.6004954413    -0.0837185445
   10      H      -1.6208924638    -0.9545411031     0.6572620714
   11      H      -1.3034890364    -0.7274169336    -1.0588010611
 ----------------------------------------------------------------

    7    -119.0670263439      6.62E-06 Convergence criterion met
    5    -119.1110746758      9.06E-06 Convergence criterion met
 Total energy in the final basis set = -119.11107468

                    Orbital Energies (a.u.)
 --------------------------------------------------------------

 Alpha MOs
 -- Occupied --
-10.2762 -10.2625 -10.2625  -0.8858  -0.7785  -0.6761  -0.5478  -0.5118
 -0.5015  -0.4652  -0.4517  -0.3826  -0.3813

                    Cartesian Multipole Moments
 -----------------------------------------------------------------
    Charge (ESU x 10^10)
                -0.0000
    Dipole Moment (Debye)
         X       0.0000      Y       0.2099      Z      -0.0254
       Tot       0.2115
    Quadrupole Moments (Debye-Ang)
        XX     -23.3000     XY      -0.0000     YY     -21.6447
        XZ       0.0000     YZ       0.5760     ZZ     -20.7662

 Total job time:  24.86s(wall), 66.88s(cpu)
        *  Thank you very much for using Q-Chem.  Have a nice day.  *
