 Q-Chem 5.3 (devel), Q-Chem, Inc., Pleasanton, CA (2020)
 Q-Chem 5.3.0 for Intel X86 EM64T Linux

User input:
--------------------------------------------------------------
$rem
   JOBTYPE  sp
   EXCHANGE   omegaB97X-D
   BASIS   6-311+G(2df,2pd)
   max_scf_cycles   250
   geom_opt_max_cycles   1500
   basis2 6-31G*
   scf_algorithm rca_diis
   SYM_IGNORE  TRUE
   print_input   true
   geom_opt_dmax   80
   pop_mulliken false
   XC_GRID 000075000302
$end

$molecule
0 1
C       1.2577293145     -0.2417002461     0.0062259222
C       -0.0000028663     0.6145411920     0.0938471205
H       1.9371615857     0.2841775410     0.6870218499
H       1.7664872151     -0.3628199738     -0.9473070598
H       1.0905054840     -1.2335530088     0.4273984681
C       -1.2577304898     -0.2417071007     0.0062186407
H       -0.0000015888     1.0503035898     -0.9070611729
H       -0.0000074726     1.4430007363     0.8076138889
H       -1.9371470237     0.2841099685     0.6870759615
H       -1.0904744872     -1.2335866665     0.4273162317
H       -1.7665197316     -0.3627653657     -0.9473048319
$end
--------------------------------------------------------------

             Standard Nuclear Orientation (Angstroms)
    I     Atom           X                Y                Z
 ----------------------------------------------------------------
    1      C       1.2577293145    -0.2417002461     0.0062259222
    2      C      -0.0000028663     0.6145411920     0.0938471205
    3      H       1.9371615857     0.2841775410     0.6870218499
    4      H       1.7664872151    -0.3628199738    -0.9473070598
    5      H       1.0905054840    -1.2335530088     0.4273984681
    6      C      -1.2577304898    -0.2417071007     0.0062186407
    7      H      -0.0000015888     1.0503035898    -0.9070611729
    8      H      -0.0000074726     1.4430007363     0.8076138889
    9      H      -1.9371470237     0.2841099685     0.6870759615
   10      H      -1.0904744872    -1.2335866665     0.4273162317
   11      H      -1.7665197316    -0.3627653657    -0.9473048319
 ----------------------------------------------------------------

    7    -119.0743809138      4.91E-06 Convergence criterion met
    5    -119.1183520331      9.63E-06 Convergence criterion met
 Total energy in the final basis set = -119.11835203

                    Orbital Energies (a.u.)
 --------------------------------------------------------------

 Alpha MOs
 -- Occupied --
-10.2733 -10.2631 -10.2631  -0.8839  -0.7770  -0.6774  -0.5469  -0.5256
 -0.4918  -0.4628  -0.4350  -0.3986  -0.3844

                    Cartesian Multipole Moments
 -----------------------------------------------------------------
    Charge (ESU x 10^10)
                -0.0000
    Dipole Moment (Debye)
         X       0.0000      Y       0.1674      Z      -0.0669
       Tot       0.1802
    Quadrupole Moments (Debye-Ang)
        XX     -22.6894     XY      -0.0000     YY     -21.6601
        XZ      -0.0000     YZ       0.5322     ZZ     -21.2353

 Total job time:  25.32s(wall), 68.19s(cpu)
        *  Thank you very much for using Q-Chem.  Have a nice day.  *
