 Q-Chem 5.2 (devel), Q-Chem, Inc., Pleasanton, CA (2019)
 Q-Chem 5.2.2 for Intel X86 EM64T Linux

User input:
--------------------------------------------------------------
$rem
   JOBTYPE  sp
   EXCHANGE   omegaB97X-D
   BASIS   6-311+G(2df,2pd)
   max_scf_cycles   250
   geom_opt_max_cycles   1500
   basis2 6-31G*
   scf_algorithm rca_diis
   SYM_IGNORE  TRUE
   print_input   true
   geom_opt_dmax   80
   pop_mulliken false
   XC_GRID 000075000302
$end

$molecule
0 1
C       1.2659366173     0.0536994730     0.2591135311
C       0.0000000164     0.0000000384     -0.5877876015
H       1.2905726776     -0.8577402882     0.8603903057
H       1.3187834570     0.9022200849     0.9437358971
H       2.1629218591     0.0220715435     -0.3601921445
C       -1.2659365686     -0.0536993564     0.2591135511
H       -0.1699505889     -0.8609736488     -1.2386313391
H       0.1699506919     0.8609736538     -1.2386314037
H       -1.3187833743     -0.9022200560     0.9437357830
H       -2.1629219002     -0.0220711085     -0.3601919985
H       -1.2905729478     0.8577403304     0.8603904384
--------------------------------------------------------------

             Standard Nuclear Orientation (Angstroms)
    I     Atom           X                Y                Z
 ----------------------------------------------------------------
    1      C       1.2659366173     0.0536994730     0.2591135311
    2      C       0.0000000164     0.0000000384    -0.5877876015
    3      H       1.2905726776    -0.8577402882     0.8603903057
    4      H       1.3187834570     0.9022200849     0.9437358971
    5      H       2.1629218591     0.0220715435    -0.3601921445
    6      C      -1.2659365686    -0.0536993564     0.2591135511
    7      H      -0.1699505889    -0.8609736488    -1.2386313391
    8      H       0.1699506919     0.8609736538    -1.2386314037
    9      H      -1.3187833743    -0.9022200560     0.9437357830
   10      H      -2.1629219002    -0.0220711085    -0.3601919985
   11      H      -1.2905729478     0.8577403304     0.8603904384
 ----------------------------------------------------------------

    7    -119.0907094376      4.98E-06 Convergence criterion met
    6    -119.1340638993      4.00E-06 Convergence criterion met
 Total energy in the final basis set = -119.13406390

                    Orbital Energies (a.u.)
 --------------------------------------------------------------

 Alpha MOs
 -- Occupied --
-10.2739 -10.2658 -10.2658  -0.8826  -0.7787  -0.6776  -0.5471  -0.5249
 -0.4889  -0.4660  -0.4274  -0.4141  -0.3892

                    Cartesian Multipole Moments
 -----------------------------------------------------------------
    Charge (ESU x 10^10)
                -0.0000
    Dipole Moment (Debye)
         X      -0.0000      Y       0.0000      Z      -0.0673
       Tot       0.0673
    Quadrupole Moments (Debye-Ang)
        XX     -22.1053     XY       0.4905     YY     -21.4323
        XZ      -0.0000     YZ      -0.0000     ZZ     -21.9034

 Total job time:  34.71s(wall), 97.02s(cpu)
        *  Thank you very much for using Q-Chem.  Have a nice day.  *
