 Q-Chem 5.3 (devel), Q-Chem, Inc., Pleasanton, CA (2020)
 Q-Chem 5.3.0 for Intel X86 EM64T Linux

User input:
--------------------------------------------------------------
$rem
   JOBTYPE  sp
   EXCHANGE   omegaB97X-D
   BASIS   6-311+G(2df,2pd)
   max_scf_cycles   250
   geom_opt_max_cycles   1500
   basis2 6-31G*
   scf_algorithm rca_diis
   SYM_IGNORE  TRUE
   print_input   true
   geom_opt_dmax   80
   pop_mulliken false
   XC_GRID 000075000302
$end

$molecule
0 1
C       1.2543252982     0.2492879604     -0.0509130818
C       -0.0000035615     -0.5496361760     0.2824101086
H       1.4679654294     0.5732981892     -1.0660317074
H       2.0296224971     -0.4666516657     0.2485135020
H       1.3551015630     1.1137599976     0.6060915210
C       -1.2543242108     0.2492954682     -0.0509232524
H       -0.0000085148     -1.1841049732     1.1732609893
H       -0.0000018039     -1.2057025201     -0.5899015211
H       -1.4679879771     0.5732251787     -1.0660635096
H       -1.3550544091     1.1138244116     0.6060128193
H       -2.0296343711     -0.4665952048     0.2485891510
$end
--------------------------------------------------------------

             Standard Nuclear Orientation (Angstroms)
    I     Atom           X                Y                Z
 ----------------------------------------------------------------
    1      C       1.2543252982     0.2492879604    -0.0509130818
    2      C      -0.0000035615    -0.5496361760     0.2824101086
    3      H       1.4679654294     0.5732981892    -1.0660317074
    4      H       2.0296224971    -0.4666516657     0.2485135020
    5      H       1.3551015630     1.1137599976     0.6060915210
    6      C      -1.2543242108     0.2492954682    -0.0509232524
    7      H      -0.0000085148    -1.1841049732     1.1732609893
    8      H      -0.0000018039    -1.2057025201    -0.5899015211
    9      H      -1.4679879771     0.5732251787    -1.0660635096
   10      H      -1.3550544091     1.1138244116     0.6060128193
   11      H      -2.0296343711    -0.4665952048     0.2485891510
 ----------------------------------------------------------------

    7    -119.0757063160      6.12E-06 Convergence criterion met
    5    -119.1194327728      9.15E-06 Convergence criterion met
 Total energy in the final basis set = -119.11943277

                    Orbital Energies (a.u.)
 --------------------------------------------------------------

 Alpha MOs
 -- Occupied --
-10.2761 -10.2632 -10.2632  -0.8847  -0.7784  -0.6766  -0.5473  -0.5164
 -0.5000  -0.4644  -0.4436  -0.3884  -0.3873

                    Cartesian Multipole Moments
 -----------------------------------------------------------------
    Charge (ESU x 10^10)
                -0.0000
    Dipole Moment (Debye)
         X       0.0000      Y      -0.2166      Z      -0.0558
       Tot       0.2237
    Quadrupole Moments (Debye-Ang)
        XX     -22.9922     XY       0.0000     YY     -21.6748
        XZ      -0.0000     YZ      -0.5912     ZZ     -20.9658

 Total job time:  24.24s(wall), 66.03s(cpu)
        *  Thank you very much for using Q-Chem.  Have a nice day.  *
