 Q-Chem 5.3 (devel), Q-Chem, Inc., Pleasanton, CA (2020)
 Q-Chem 5.3.0 for Intel X86 EM64T Linux

User input:
--------------------------------------------------------------
$rem
   JOBTYPE  sp
   EXCHANGE   omegaB97X-D
   BASIS   6-311+G(2df,2pd)
   max_scf_cycles   250
   geom_opt_max_cycles   1500
   basis2 6-31G*
   scf_algorithm rca_diis
   SYM_IGNORE  TRUE
   print_input   true
   geom_opt_dmax   80
   pop_mulliken false
   XC_GRID 000075000302
$end

$molecule
0 1
C       1.2251267714     -0.3237736111     0.2659205420
C       0.0000009172     0.0000074799     -0.5808094832
H       1.9724053234     -0.8334198210     -0.3421509853
H       0.9791242407     -0.9810089449     1.1049481052
H       1.6855401056     0.5790860519     0.6683957004
C       -1.2251267713     0.3237688895     0.2659255689
H       -0.1635436825     -0.8587500169     -1.2362061331
H       0.1635464970     0.8587807640     -1.2361857613
H       -0.9791385366     0.9810296373     1.1049367947
H       -1.6855085354     -0.5790981261     0.6684204444
H       -1.9724263902     0.8333783635     -0.3421497739
$end
--------------------------------------------------------------

             Standard Nuclear Orientation (Angstroms)
    I     Atom           X                Y                Z
 ----------------------------------------------------------------
    1      C       1.2251267714    -0.3237736111     0.2659205420
    2      C       0.0000009172     0.0000074799    -0.5808094832
    3      H       1.9724053234    -0.8334198210    -0.3421509853
    4      H       0.9791242407    -0.9810089449     1.1049481052
    5      H       1.6855401056     0.5790860519     0.6683957004
    6      C      -1.2251267713     0.3237688895     0.2659255689
    7      H      -0.1635436825    -0.8587500169    -1.2362061331
    8      H       0.1635464970     0.8587807640    -1.2361857613
    9      H      -0.9791385366     0.9810296373     1.1049367947
   10      H      -1.6855085354    -0.5790981261     0.6684204444
   11      H      -1.9724263902     0.8333783635    -0.3421497739
 ----------------------------------------------------------------

    7    -119.0999531519      4.57E-06 Convergence criterion met
    6    -119.1429704166      3.82E-06 Convergence criterion met
 Total energy in the final basis set = -119.14297042

                    Orbital Energies (a.u.)
 --------------------------------------------------------------

 Alpha MOs
 -- Occupied --
-10.2735 -10.2646 -10.2646  -0.8809  -0.7774  -0.6772  -0.5454  -0.5230
 -0.4838  -0.4664  -0.4192  -0.4150  -0.4043

                    Cartesian Multipole Moments
 -----------------------------------------------------------------
    Charge (ESU x 10^10)
                 0.0000
    Dipole Moment (Debye)
         X      -0.0000      Y       0.0000      Z      -0.0943
       Tot       0.0943
    Quadrupole Moments (Debye-Ang)
        XX     -22.3100     XY       0.1087     YY     -21.2954
        XZ      -0.0000     YZ       0.0000     ZZ     -21.7859

 Total job time:  25.94s(wall), 71.20s(cpu)
        *  Thank you very much for using Q-Chem.  Have a nice day.  *
