 Q-Chem 5.3 (devel), Q-Chem, Inc., Pleasanton, CA (2020)
 Q-Chem 5.3.0 for Intel X86 EM64T Linux

User input:
--------------------------------------------------------------
$rem
   JOBTYPE  sp
   EXCHANGE   omegaB97X-D
   BASIS   6-311+G(2df,2pd)
   max_scf_cycles   250
   geom_opt_max_cycles   1500
   basis2 6-31G*
   scf_algorithm rca_diis
   SYM_IGNORE  TRUE
   print_input   true
   geom_opt_dmax   80
   pop_mulliken false
   XC_GRID 000075000302
$end

$molecule
0 1
C       0.8171948421     -0.9683504380     0.2554879030
C       0.0000091183     0.0000193582     -0.5913788618
H       0.1791841123     -1.3187060508     1.0605957935
H       1.7123258863     -0.5237976900     0.7110568651
H       1.1224711503     -1.8437499522     -0.3186236214
C       -0.8172049512     0.9683316770     0.2555267886
H       -0.5217506820     -0.7054308582     -1.2424251219
H       0.5217907053     0.7055161452     -1.2423590710
H       -1.7122519149     0.5237078652     0.7111878450
H       -1.1226064772     1.8436837119     -0.3185907626
H       -0.1791618500     1.3187768976     1.0605672624
$end
--------------------------------------------------------------

             Standard Nuclear Orientation (Angstroms)
    I     Atom           X                Y                Z
 ----------------------------------------------------------------
    1      C       0.8171948421    -0.9683504380     0.2554879030
    2      C       0.0000091183     0.0000193582    -0.5913788618
    3      H       0.1791841123    -1.3187060508     1.0605957935
    4      H       1.7123258863    -0.5237976900     0.7110568651
    5      H       1.1224711503    -1.8437499522    -0.3186236214
    6      C      -0.8172049512     0.9683316770     0.2555267886
    7      H      -0.5217506820    -0.7054308582    -1.2424251219
    8      H       0.5217907053     0.7055161452    -1.2423590710
    9      H      -1.7122519149     0.5237078652     0.7111878450
   10      H      -1.1226064772     1.8436837119    -0.3185907626
   11      H      -0.1791618500     1.3187768976     1.0605672624
 ----------------------------------------------------------------

    7    -119.0916372550      4.72E-06 Convergence criterion met
    6    -119.1350021512      4.06E-06 Convergence criterion met
 Total energy in the final basis set = -119.13500215

                    Orbital Energies (a.u.)
 --------------------------------------------------------------

 Alpha MOs
 -- Occupied --
-10.2735 -10.2658 -10.2658  -0.8830  -0.7786  -0.6777  -0.5472  -0.5274
 -0.4824  -0.4658  -0.4245  -0.4143  -0.3962

                    Cartesian Multipole Moments
 -----------------------------------------------------------------
    Charge (ESU x 10^10)
                -0.0000
    Dipole Moment (Debye)
         X       0.0000      Y       0.0000      Z      -0.0534
       Tot       0.0534
    Quadrupole Moments (Debye-Ang)
        XX     -22.1330     XY       0.4013     YY     -21.3789
        XZ      -0.0000     YZ       0.0000     ZZ     -21.9368

 Total job time:  27.83s(wall), 75.08s(cpu)
        *  Thank you very much for using Q-Chem.  Have a nice day.  *
