 Q-Chem 5.2 (devel), Q-Chem, Inc., Pleasanton, CA (2019)
 Q-Chem 5.2.2 for Intel X86 EM64T Linux

User input:
--------------------------------------------------------------
$rem
   JOBTYPE  sp
   EXCHANGE   omegaB97X-D
   BASIS   6-311+G(2df,2pd)
   max_scf_cycles   250
   geom_opt_max_cycles   1500
   basis2 6-31G*
   scf_algorithm rca_diis
   SYM_IGNORE  TRUE
   print_input   true
   geom_opt_dmax   80
   pop_mulliken false
   XC_GRID 000075000302
$end

$molecule
0 1
C       1.2636203829     -0.1763655705     0.1503263998
C       -0.0000013256     0.5439852936     -0.3047310589
H       1.2510498175     -0.1230330170     1.2434654562
H       2.2095926958     0.2425290272     -0.1904130357
H       1.2429933507     -1.2313677219     -0.1247892072
C       -1.2636198453     -0.1763730412     0.1503244659
H       -0.0000003322     0.4106268131     -1.3885796580
H       -0.0000048741     1.6219056695     -0.1228057211
H       -1.2510299453     -0.1230895454     1.2434652281
H       -1.2430064308     -1.2313634512     -0.1248380619
H       -2.2095935542     0.2425462099     -0.1903797883
--------------------------------------------------------------

             Standard Nuclear Orientation (Angstroms)
    I     Atom           X                Y                Z
 ----------------------------------------------------------------
    1      C       1.2636203829    -0.1763655705     0.1503263998
    2      C      -0.0000013256     0.5439852936    -0.3047310589
    3      H       1.2510498175    -0.1230330170     1.2434654562
    4      H       2.2095926958     0.2425290272    -0.1904130357
    5      H       1.2429933507    -1.2313677219    -0.1247892072
    6      C      -1.2636198453    -0.1763730412     0.1503244659
    7      H      -0.0000003322     0.4106268131    -1.3885796580
    8      H      -0.0000048741     1.6219056695    -0.1228057211
    9      H      -1.2510299453    -0.1230895454     1.2434652281
   10      H      -1.2430064308    -1.2313634512    -0.1248380619
   11      H      -2.2095935542     0.2425462099    -0.1903797883
 ----------------------------------------------------------------

    7    -119.0962054790      4.68E-06 Convergence criterion met
    6    -119.1393807709      4.14E-06 Convergence criterion met
 Total energy in the final basis set = -119.13938077

                    Orbital Energies (a.u.)
 --------------------------------------------------------------

 Alpha MOs
 -- Occupied --
-10.2742 -10.2663 -10.2663  -0.8834  -0.7768  -0.6783  -0.5483  -0.5292
 -0.4768  -0.4618  -0.4279  -0.4248  -0.3922

                    Cartesian Multipole Moments
 -----------------------------------------------------------------
    Charge (ESU x 10^10)
                 0.0000
    Dipole Moment (Debye)
         X      -0.0000      Y       0.0292      Z      -0.0830
       Tot       0.0880
    Quadrupole Moments (Debye-Ang)
        XX     -21.8820     XY      -0.0000     YY     -21.4646
        XZ      -0.0000     YZ       0.4431     ZZ     -22.0464

 Total job time:  35.16s(wall), 98.55s(cpu)
        *  Thank you very much for using Q-Chem.  Have a nice day.  *
