 Q-Chem 5.3 (devel), Q-Chem, Inc., Pleasanton, CA (2020)
 Q-Chem 5.3.0 for Intel X86 EM64T Linux

User input:
--------------------------------------------------------------
$rem
   JOBTYPE  sp
   EXCHANGE   omegaB97X-D
   BASIS   6-311+G(2df,2pd)
   max_scf_cycles   250
   geom_opt_max_cycles   1500
   basis2 6-31G*
   scf_algorithm rca_diis
   SYM_IGNORE  TRUE
   print_input   true
   geom_opt_dmax   80
   pop_mulliken false
   XC_GRID 000075000302
$end

$molecule
0 1
C       1.1229887937     0.5870233793     0.2628734858
C       0.0000034162     -0.0000135384     -0.5838938492
H       1.3897261000     1.6066400335     -0.0358537431
H       2.0122213749     -0.0304951984     0.1519334142
H       0.8626998159     0.6003826518     1.3217378717
C       -1.1229906013     -0.5870144973     0.2628866711
H       0.3025933263     -0.8210102723     -1.2382344254
H       -0.3025785224     0.8209546224     -1.2382729333
H       -2.0121902021     0.0305608036     0.1519898523
H       -0.8626781676     -0.6004200331     1.3217446378
H       -1.3897953944     -1.6066072851     -0.0358659631
$end
--------------------------------------------------------------

             Standard Nuclear Orientation (Angstroms)
    I     Atom           X                Y                Z
 ----------------------------------------------------------------
    1      C       1.1229887937     0.5870233793     0.2628734858
    2      C       0.0000034162    -0.0000135384    -0.5838938492
    3      H       1.3897261000     1.6066400335    -0.0358537431
    4      H       2.0122213749    -0.0304951984     0.1519334142
    5      H       0.8626998159     0.6003826518     1.3217378717
    6      C      -1.1229906013    -0.5870144973     0.2628866711
    7      H       0.3025933263    -0.8210102723    -1.2382344254
    8      H      -0.3025785224     0.8209546224    -1.2382729333
    9      H      -2.0121902021     0.0305608036     0.1519898523
   10      H      -0.8626781676    -0.6004200331     1.3217446378
   11      H      -1.3897953944    -1.6066072851    -0.0358659631
 ----------------------------------------------------------------

    7    -119.0882353274      4.28E-06 Convergence criterion met
    6    -119.1317482268      3.99E-06 Convergence criterion met
 Total energy in the final basis set = -119.13174823

                    Orbital Energies (a.u.)
 --------------------------------------------------------------

 Alpha MOs
 -- Occupied --
-10.2714 -10.2635 -10.2635  -0.8813  -0.7767  -0.6777  -0.5447  -0.5280
 -0.4776  -0.4701  -0.4216  -0.4173  -0.3905

                    Cartesian Multipole Moments
 -----------------------------------------------------------------
    Charge (ESU x 10^10)
                 0.0000
    Dipole Moment (Debye)
         X       0.0000      Y       0.0000      Z      -0.0835
       Tot       0.0835
    Quadrupole Moments (Debye-Ang)
        XX     -22.4050     XY      -0.2765     YY     -21.2406
        XZ      -0.0000     YZ      -0.0000     ZZ     -21.8229

 Total job time:  26.90s(wall), 73.27s(cpu)
        *  Thank you very much for using Q-Chem.  Have a nice day.  *
