 Q-Chem 5.3 (devel), Q-Chem, Inc., Pleasanton, CA (2020)
 Q-Chem 5.3.0 for Intel X86 EM64T Linux

User input:
--------------------------------------------------------------
$rem
   JOBTYPE  sp
   EXCHANGE   omegaB97X-D
   BASIS   6-311+G(2df,2pd)
   max_scf_cycles   250
   geom_opt_max_cycles   1500
   basis2 6-31G*
   scf_algorithm rca_diis
   SYM_IGNORE  TRUE
   print_input   true
   geom_opt_dmax   80
   pop_mulliken false
   XC_GRID 000075000302
$end

$molecule
0 1
C       1.0510882237     0.7077192008     0.2564003332
C       0.0000048005     -0.0000161785     -0.5903926158
H       1.7349552188     1.3276695501     -0.3350177769
H       1.6486515672     -0.0428920335     0.7683595820
H       0.5938259541     1.3378278972     1.0199426756
C       -1.0510921064     -0.7077084243     0.2564192961
H       0.3689094009     -0.7940416076     -1.2439912423
H       -0.3688877161     0.7939751823     -1.2440381857
H       -1.6485798518     0.0429303683     0.7684285452
H       -0.5938468779     -1.3378721714     1.0199262942
H       -1.7350286735     -1.3275911175     -0.3349918867
$end
--------------------------------------------------------------

             Standard Nuclear Orientation (Angstroms)
    I     Atom           X                Y                Z
 ----------------------------------------------------------------
    1      C       1.0510882237     0.7077192008     0.2564003332
    2      C       0.0000048005    -0.0000161785    -0.5903926158
    3      H       1.7349552188     1.3276695501    -0.3350177769
    4      H       1.6486515672    -0.0428920335     0.7683595820
    5      H       0.5938259541     1.3378278972     1.0199426756
    6      C      -1.0510921064    -0.7077084243     0.2564192961
    7      H       0.3689094009    -0.7940416076    -1.2439912423
    8      H      -0.3688877161     0.7939751823    -1.2440381857
    9      H      -1.6485798518     0.0429303683     0.7684285452
   10      H      -0.5938468779    -1.3378721714     1.0199262942
   11      H      -1.7350286735    -1.3275911175    -0.3349918867
 ----------------------------------------------------------------

    7    -119.0973803867      4.62E-06 Convergence criterion met
    6    -119.1405019621      3.99E-06 Convergence criterion met
 Total energy in the final basis set = -119.14050196

                    Orbital Energies (a.u.)
 --------------------------------------------------------------

 Alpha MOs
 -- Occupied --
-10.2737 -10.2657 -10.2657  -0.8820  -0.7776  -0.6779  -0.5469  -0.5253
 -0.4832  -0.4646  -0.4264  -0.4155  -0.3975

                    Cartesian Multipole Moments
 -----------------------------------------------------------------
    Charge (ESU x 10^10)
                 0.0000
    Dipole Moment (Debye)
         X       0.0000      Y      -0.0000      Z      -0.0576
       Tot       0.0576
    Quadrupole Moments (Debye-Ang)
        XX     -22.2246     XY      -0.1404     YY     -21.2647
        XZ      -0.0000     YZ      -0.0000     ZZ     -21.9157

 Total job time:  27.49s(wall), 74.16s(cpu)
        *  Thank you very much for using Q-Chem.  Have a nice day.  *
