 Q-Chem 5.3 (devel), Q-Chem, Inc., Pleasanton, CA (2020)
 Q-Chem 5.3.0 for Intel X86 EM64T Linux

User input:
--------------------------------------------------------------
$rem
   JOBTYPE  sp
   EXCHANGE   omegaB97X-D
   BASIS   6-311+G(2df,2pd)
   max_scf_cycles   250
   geom_opt_max_cycles   1500
   basis2 6-31G*
   scf_algorithm rca_diis
   SYM_IGNORE  TRUE
   print_input   true
   geom_opt_dmax   80
   pop_mulliken false
   XC_GRID 000075000302
$end

$molecule
0 1
C       0.9856979994     0.7962499995     0.2520369103
C       0.0000060070     -0.0000178763     -0.5947766940
H       1.9419197455     0.9843902163     -0.2514096898
H       1.1965408786     0.2292643178     1.1549537910
H       0.5671918257     1.7549749908     0.5599681940
C       -0.9857039767     -0.7962370523     0.2520613583
H       0.4189106758     -0.7694340617     -1.2476748322
H       -0.4188828041     0.7693600383     -1.2477286535
H       -1.1964501785     -0.2292619587     1.1550088752
H       -0.5672605199     -1.7550043102     0.5599459410
H       -1.9419697133     -0.9842836374     -0.2513401813
$end
--------------------------------------------------------------

             Standard Nuclear Orientation (Angstroms)
    I     Atom           X                Y                Z
 ----------------------------------------------------------------
    1      C       0.9856979994     0.7962499995     0.2520369103
    2      C       0.0000060070    -0.0000178763    -0.5947766940
    3      H       1.9419197455     0.9843902163    -0.2514096898
    4      H       1.1965408786     0.2292643178     1.1549537910
    5      H       0.5671918257     1.7549749908     0.5599681940
    6      C      -0.9857039767    -0.7962370523     0.2520613583
    7      H       0.4189106758    -0.7694340617    -1.2476748322
    8      H      -0.4188828041     0.7693600383    -1.2477286535
    9      H      -1.1964501785    -0.2292619587     1.1550088752
   10      H      -0.5672605199    -1.7550043102     0.5599459410
   11      H      -1.9419697133    -0.9842836374    -0.2513401813
 ----------------------------------------------------------------

    7    -119.0934694177      4.57E-06 Convergence criterion met
    6    -119.1366942670      4.09E-06 Convergence criterion met
 Total energy in the final basis set = -119.13669427

                    Orbital Energies (a.u.)
 --------------------------------------------------------------

 Alpha MOs
 -- Occupied --
-10.2730 -10.2656 -10.2656  -0.8825  -0.7774  -0.6782  -0.5465  -0.5274
 -0.4787  -0.4690  -0.4263  -0.4141  -0.3952

                    Cartesian Multipole Moments
 -----------------------------------------------------------------
    Charge (ESU x 10^10)
                -0.0000
    Dipole Moment (Debye)
         X       0.0000      Y      -0.0000      Z      -0.0564
       Tot       0.0564
    Quadrupole Moments (Debye-Ang)
        XX     -22.0912     XY      -0.2638     YY     -21.2487
        XZ       0.0000     YZ      -0.0000     ZZ     -22.0684

 Total job time:  27.60s(wall), 74.33s(cpu)
        *  Thank you very much for using Q-Chem.  Have a nice day.  *
