 Q-Chem 5.2 (devel), Q-Chem, Inc., Pleasanton, CA (2019)
 Q-Chem 5.2.2 for Intel X86 EM64T Linux

User input:
--------------------------------------------------------------
$rem
   JOBTYPE  sp
   EXCHANGE   omegaB97X-D
   BASIS   6-311+G(2df,2pd)
   max_scf_cycles   250
   geom_opt_max_cycles   1500
   basis2 6-31G*
   scf_algorithm rca_diis
   SYM_IGNORE  TRUE
   print_input   true
   geom_opt_dmax   80
   pop_mulliken false
   XC_GRID 000075000302
$end

$molecule
0 1
C       1.2619269051     -0.0000000498     0.2850646337
C       0.0000000174     0.0000000676     -0.6015380960
H       1.3490605271     -0.8880870085     0.9130672016
H       1.3490604216     0.8880869506     0.9130671653
H       2.1248001178     0.0000000588     -0.3842187477
C       -1.2619269400     -0.0000000598     0.2850646976
H       -0.0000000733     -0.8756061529     -1.2556886683
H       -0.0000000258     0.8756061948     -1.2556887935
H       -1.3490605072     -0.8880870111     0.9130672537
H       -2.1248000274     0.0000006956     -0.3842188107
H       -1.3490604761     0.8880869808     0.9130671833
--------------------------------------------------------------

             Standard Nuclear Orientation (Angstroms)
    I     Atom           X                Y                Z
 ----------------------------------------------------------------
    1      C       1.2619269051    -0.0000000498     0.2850646337
    2      C       0.0000000174     0.0000000676    -0.6015380960
    3      H       1.3490605271    -0.8880870085     0.9130672016
    4      H       1.3490604216     0.8880869506     0.9130671653
    5      H       2.1248001178     0.0000000588    -0.3842187477
    6      C      -1.2619269400    -0.0000000598     0.2850646976
    7      H      -0.0000000733    -0.8756061529    -1.2556886683
    8      H      -0.0000000258     0.8756061948    -1.2556887935
    9      H      -1.3490605072    -0.8880870111     0.9130672537
   10      H      -2.1248000274     0.0000006956    -0.3842188107
   11      H      -1.3490604761     0.8880869808     0.9130671833
 ----------------------------------------------------------------

    7    -119.1006594319      5.15E-06 Convergence criterion met
    5    -119.1434205598      9.18E-06 Convergence criterion met
 Total energy in the final basis set = -119.14342056

                    Orbital Energies (a.u.)
 --------------------------------------------------------------

 Alpha MOs
 -- Occupied --
-10.2781 -10.2650 -10.2650  -0.8763  -0.7751  -0.6793  -0.5433  -0.5168
 -0.4843  -0.4659  -0.4248  -0.4129  -0.4025

                    Cartesian Multipole Moments
 -----------------------------------------------------------------
    Charge (ESU x 10^10)
                 0.0000
    Dipole Moment (Debye)
         X       0.0000      Y       0.0000      Z      -0.1184
       Tot       0.1184
    Quadrupole Moments (Debye-Ang)
        XX     -22.4964     XY      -0.0000     YY     -21.2552
        XZ       0.0000     YZ      -0.0000     ZZ     -21.6348

 Total job time:  31.15s(wall), 86.42s(cpu)
        *  Thank you very much for using Q-Chem.  Have a nice day.  *
