 Q-Chem 5.3 (devel), Q-Chem, Inc., Pleasanton, CA (2020)
 Q-Chem 5.3.0 for Intel X86 EM64T Linux

User input:
--------------------------------------------------------------
$rem
   JOBTYPE  sp
   EXCHANGE   omegaB97X-D
   BASIS   6-311+G(2df,2pd)
   max_scf_cycles   250
   geom_opt_max_cycles   1500
   basis2 6-31G*
   scf_algorithm rca_diis
   SYM_IGNORE  TRUE
   print_input   true
   geom_opt_dmax   80
   pop_mulliken false
   XC_GRID 000075000302
$end

$molecule
0 1
C       1.2409297756     -0.0000016101     0.2851938243
C       -0.0078989482     -0.0000015285     -0.5873360382
H       1.2761788806     -0.8386879354     0.8921056493
H       1.2761789790     0.8386907902     0.8921095106
H       2.2528423985     -0.0000010674     -0.4013853725
C       -1.2929492604     -0.0000015213     0.2331554050
H       -0.0000650434     -0.8738615634     -1.2431249979
H       -0.0000650231     0.8738628529     -1.2431276719
H       -1.3340676780     -0.9221752149     0.9154563272
H       -2.0770164324     -0.0000004248     -0.3174615462
H       -1.3340677089     0.9221778886     0.9154599292
$end
--------------------------------------------------------------

             Standard Nuclear Orientation (Angstroms)
    I     Atom           X                Y                Z
 ----------------------------------------------------------------
    1      C       1.2409297756    -0.0000016101     0.2851938243
    2      C      -0.0078989482    -0.0000015285    -0.5873360382
    3      H       1.2761788806    -0.8386879354     0.8921056493
    4      H       1.2761789790     0.8386907902     0.8921095106
    5      H       2.2528423985    -0.0000010674    -0.4013853725
    6      C      -1.2929492604    -0.0000015213     0.2331554050
    7      H      -0.0000650434    -0.8738615634    -1.2431249979
    8      H      -0.0000650231     0.8738628529    -1.2431276719
    9      H      -1.3340676780    -0.9221752149     0.9154563272
   10      H      -2.0770164324    -0.0000004248    -0.3174615462
   11      H      -1.3340677089     0.9221778886     0.9154599292
 ----------------------------------------------------------------

    7    -119.0724689673      5.22E-06 Convergence criterion met
    5    -119.1166401841      9.66E-06 Convergence criterion met
 Total energy in the final basis set = -119.11664018

                    Orbital Energies (a.u.)
 --------------------------------------------------------------

 Alpha MOs
 -- Occupied --
-10.2750 -10.2659 -10.2629  -0.8831  -0.7820  -0.6807  -0.5476  -0.5293
 -0.4801  -0.4652  -0.4249  -0.4099  -0.4070

                    Cartesian Multipole Moments
 -----------------------------------------------------------------
    Charge (ESU x 10^10)
                 0.0000
    Dipole Moment (Debye)
         X      -0.1649      Y      -0.0000      Z      -0.0760
       Tot       0.1815
    Quadrupole Moments (Debye-Ang)
        XX     -22.2914     XY       0.0000     YY     -21.3601
        XZ       0.2569     YZ      -0.0000     ZZ     -21.8093

 Total job time:  25.22s(wall), 67.59s(cpu)
        *  Thank you very much for using Q-Chem.  Have a nice day.  *
