 Q-Chem 5.2 (devel), Q-Chem, Inc., Pleasanton, CA (2019)
 Q-Chem 5.2.2 for Intel X86 EM64T Linux

User input:
--------------------------------------------------------------
$rem
   JOBTYPE  sp
   EXCHANGE   omegaB97X-D
   BASIS   6-311+G(2df,2pd)
   max_scf_cycles   250
   geom_opt_max_cycles   1500
   basis2 6-31G*
   scf_algorithm rca_diis
   SYM_IGNORE  TRUE
   print_input   true
   geom_opt_dmax   80
   pop_mulliken false
   XC_GRID 000075000302
$end

$molecule
0 1
C       1.2553111544     -0.0000008843     0.2699904802
C       -0.0120388143     -0.0000004379     -0.5868163985
H       1.3043554310     -0.9188054196     0.8556940914
H       1.3043586225     0.9188042313     0.8556931688
H       2.1765462474     0.0000030227     -0.3173148863
C       -1.2790725899     0.0000003940     0.2497472407
H       0.0095480577     -0.8737655738     -1.2424271172
H       0.0095480535     0.8737649769     -1.2424267047
H       -1.3084972598     -0.8387949419     0.9499288597
H       -2.1515637008     -0.0000003071     -0.4009527464
H       -1.3084952623     0.8387956056     0.9499290311
--------------------------------------------------------------

             Standard Nuclear Orientation (Angstroms)
    I     Atom           X                Y                Z
 ----------------------------------------------------------------
    1      C       1.2553111544    -0.0000008843     0.2699904802
    2      C      -0.0120388143    -0.0000004379    -0.5868163985
    3      H       1.3043554310    -0.9188054196     0.8556940914
    4      H       1.3043586225     0.9188042313     0.8556931688
    5      H       2.1765462474     0.0000030227    -0.3173148863
    6      C      -1.2790725899     0.0000003940     0.2497472407
    7      H       0.0095480577    -0.8737655738    -1.2424271172
    8      H       0.0095480535     0.8737649769    -1.2424267047
    9      H      -1.3084972598    -0.8387949419     0.9499288597
   10      H      -2.1515637008    -0.0000003071    -0.4009527464
   11      H      -1.3084952623     0.8387956056     0.9499290311
 ----------------------------------------------------------------

    7    -119.0995409511      4.74E-06 Convergence criterion met
    6    -119.1426469019      3.89E-06 Convergence criterion met
 Total energy in the final basis set = -119.14264690

                    Orbital Energies (a.u.)
 --------------------------------------------------------------

 Alpha MOs
 -- Occupied --
-10.2740 -10.2652 -10.2652  -0.8813  -0.7775  -0.6781  -0.5465  -0.5255
 -0.4837  -0.4634  -0.4191  -0.4148  -0.4059

                    Cartesian Multipole Moments
 -----------------------------------------------------------------
    Charge (ESU x 10^10)
                -0.0000
    Dipole Moment (Debye)
         X       0.0378      Y       0.0000      Z      -0.0851
       Tot       0.0932
    Quadrupole Moments (Debye-Ang)
        XX     -22.1648     XY       0.0000     YY     -21.3829
        XZ      -0.0312     YZ      -0.0000     ZZ     -21.8400

 Total job time:  35.06s(wall), 97.91s(cpu)
        *  Thank you very much for using Q-Chem.  Have a nice day.  *
