 Q-Chem 5.3 (devel), Q-Chem, Inc., Pleasanton, CA (2020)
 Q-Chem 5.3.0 for Intel X86 EM64T Linux

User input:
--------------------------------------------------------------
$rem
   JOBTYPE  sp
   EXCHANGE   omegaB97X-D
   BASIS   6-311+G(2df,2pd)
   max_scf_cycles   250
   geom_opt_max_cycles   1500
   basis2 6-31G*
   scf_algorithm rca_diis
   SYM_IGNORE  TRUE
   print_input   true
   geom_opt_dmax   80
   pop_mulliken false
   XC_GRID 000075000302
$end

$molecule
0 1
C       1.3438598004     0.0000001211     0.2567598362
C       0.0000000001     -0.0000000033     -0.6877848448
H       1.2999234311     -0.8709707267     0.9153114257
H       1.2999238395     0.8709706504     0.9153118599
H       2.3198035706     -0.0000001073     -0.2312129242
C       -1.3438599015     -0.0000001816     0.2567597803
H       0.0000005777     -0.8751045287     -1.3417554359
H       -0.0000002945     0.8751046209     -1.3417553032
H       -1.2999238300     -0.8709705178     0.9153120353
H       -2.3198037772     0.0000006750     -0.2312127590
H       -1.2999234768     0.8709706639     0.9153113485
$end
--------------------------------------------------------------

             Standard Nuclear Orientation (Angstroms)
    I     Atom           X                Y                Z
 ----------------------------------------------------------------
    1      C       1.3438598004     0.0000001211     0.2567598362
    2      C       0.0000000001    -0.0000000033    -0.6877848448
    3      H       1.2999234311    -0.8709707267     0.9153114257
    4      H       1.2999238395     0.8709706504     0.9153118599
    5      H       2.3198035706    -0.0000001073    -0.2312129242
    6      C      -1.3438599015    -0.0000001816     0.2567597803
    7      H       0.0000005777    -0.8751045287    -1.3417554359
    8      H      -0.0000002945     0.8751046209    -1.3417553032
    9      H      -1.2999238300    -0.8709705178     0.9153120353
   10      H      -2.3198037772     0.0000006750    -0.2312127590
   11      H      -1.2999234768     0.8709706639     0.9153113485
 ----------------------------------------------------------------

    7    -119.0885418843      5.91E-06 Convergence criterion met
    5    -119.1308913916      9.66E-06 Convergence criterion met
 Total energy in the final basis set = -119.13089139

                    Orbital Energies (a.u.)
 --------------------------------------------------------------

 Alpha MOs
 -- Occupied --
-10.2935 -10.2751 -10.2751  -0.8532  -0.7707  -0.6885  -0.5298  -0.5150
 -0.4683  -0.4607  -0.4186  -0.4186  -0.4132

                    Cartesian Multipole Moments
 -----------------------------------------------------------------
    Charge (ESU x 10^10)
                 0.0000
    Dipole Moment (Debye)
         X       0.0000      Y       0.0000      Z       0.0036
       Tot       0.0036
    Quadrupole Moments (Debye-Ang)
        XX     -21.5760     XY      -0.0000     YY     -21.6337
        XZ      -0.0000     YZ      -0.0000     ZZ     -21.9170

 Total job time:  24.60s(wall), 66.12s(cpu)
        *  Thank you very much for using Q-Chem.  Have a nice day.  *
