 Q-Chem 5.2 (devel), Q-Chem, Inc., Pleasanton, CA (2019)
 Q-Chem 5.2.2 for Intel X86 EM64T Linux

User input:
--------------------------------------------------------------
$rem
   JOBTYPE  sp
   EXCHANGE   omegaB97X-D
   BASIS   6-311+G(2df,2pd)
   max_scf_cycles   250
   geom_opt_max_cycles   1500
   basis2 6-31G*
   scf_algorithm rca_diis
   SYM_IGNORE  TRUE
   print_input   true
   geom_opt_dmax   80
   pop_mulliken false
   XC_GRID 000075000302
$end

$molecule
0 1
C       1.2662997724     -0.0916199332     0.2314532656
C       -0.0000002936     0.3141623182     -0.5132254313
H       0.9717286846     -0.5566850692     1.1759141265
H       1.9225954997     0.7466043256     0.4680133228
H       1.8456086764     -0.8242145843     -0.3314312059
C       -1.2662991218     -0.0916246478     0.2314531185
H       0.0000007037     -0.2369601282     -1.4563046004
H       -0.0000024251     1.3746514301     -0.7773192333
H       -0.9717290068     -0.5567124183     1.1759028603
H       -1.8456173953     -0.8242019589     -0.3314444927
H       -1.9225851549     0.7466013319     0.4680332890
--------------------------------------------------------------

             Standard Nuclear Orientation (Angstroms)
    I     Atom           X                Y                Z
 ----------------------------------------------------------------
    1      C       1.2662997724    -0.0916199332     0.2314532656
    2      C      -0.0000002936     0.3141623182    -0.5132254313
    3      H       0.9717286846    -0.5566850692     1.1759141265
    4      H       1.9225954997     0.7466043256     0.4680133228
    5      H       1.8456086764    -0.8242145843    -0.3314312059
    6      C      -1.2662991218    -0.0916246478     0.2314531185
    7      H       0.0000007037    -0.2369601282    -1.4563046004
    8      H      -0.0000024251     1.3746514301    -0.7773192333
    9      H      -0.9717290068    -0.5567124183     1.1759028603
   10      H      -1.8456173953    -0.8242019589    -0.3314444927
   11      H      -1.9225851549     0.7466013319     0.4680332890
 ----------------------------------------------------------------

    7    -119.0893214495      4.12E-06 Convergence criterion met
    6    -119.1328929576      4.08E-06 Convergence criterion met
 Total energy in the final basis set = -119.13289296

                    Orbital Energies (a.u.)
 --------------------------------------------------------------

 Alpha MOs
 -- Occupied --
-10.2715 -10.2635 -10.2634  -0.8821  -0.7755  -0.6786  -0.5442  -0.5325
 -0.4718  -0.4686  -0.4196  -0.4164  -0.3982

                    Cartesian Multipole Moments
 -----------------------------------------------------------------
    Charge (ESU x 10^10)
                -0.0000
    Dipole Moment (Debye)
         X      -0.0000      Y       0.0147      Z      -0.0915
       Tot       0.0927
    Quadrupole Moments (Debye-Ang)
        XX     -22.2898     XY      -0.0000     YY     -21.3121
        XZ      -0.0000     YZ       0.3044     ZZ     -21.8559

 Total job time:  34.71s(wall), 97.14s(cpu)
        *  Thank you very much for using Q-Chem.  Have a nice day.  *
