 Q-Chem 5.3 (devel), Q-Chem, Inc., Pleasanton, CA (2020)
 Q-Chem 5.3.0 for Intel X86 EM64T Linux

User input:
--------------------------------------------------------------
$rem
   JOBTYPE  sp
   EXCHANGE   omegaB97X-D
   BASIS   6-311+G(2df,2pd)
   max_scf_cycles   250
   geom_opt_max_cycles   1500
   basis2 6-31G*
   scf_algorithm rca_diis
   SYM_IGNORE  TRUE
   print_input   true
   geom_opt_dmax   80
   pop_mulliken false
   XC_GRID 000075000302
$end

$molecule
0 1
C       0.7966290252     0.9853526607     0.2571476434
C       0.0000101956     -0.0000212482     -0.5897067889
H       1.6144961660     0.5296492898     0.8317911356
H       0.1096616224     1.4363993979     0.9658683460
H       1.2101552391     1.7919719084     -0.3490571601
C       -0.7966392657     -0.9853328985     0.2571907365
H       0.5326252882     -0.6976050883     -1.2404424160
H       -0.5325786059     0.6975143281     -1.2405137424
H       -0.1096518679     -1.4364671424     0.9658387493
H       -1.2102976769     -1.7919019037     -0.3489905012
H       -1.6144101810     -0.5295586378     0.8319190167
$end
--------------------------------------------------------------

             Standard Nuclear Orientation (Angstroms)
    I     Atom           X                Y                Z
 ----------------------------------------------------------------
    1      C       0.7966290252     0.9853526607     0.2571476434
    2      C       0.0000101956    -0.0000212482    -0.5897067889
    3      H       1.6144961660     0.5296492898     0.8317911356
    4      H       0.1096616224     1.4363993979     0.9658683460
    5      H       1.2101552391     1.7919719084    -0.3490571601
    6      C      -0.7966392657    -0.9853328985     0.2571907365
    7      H       0.5326252882    -0.6976050883    -1.2404424160
    8      H      -0.5325786059     0.6975143281    -1.2405137424
    9      H      -0.1096518679    -1.4364671424     0.9658387493
   10      H      -1.2102976769    -1.7919019037    -0.3489905012
   11      H      -1.6144101810    -0.5295586378     0.8319190167
 ----------------------------------------------------------------

    7    -119.0929940347      4.74E-06 Convergence criterion met
    6    -119.1362697697      4.01E-06 Convergence criterion met
 Total energy in the final basis set = -119.13626977

                    Orbital Energies (a.u.)
 --------------------------------------------------------------

 Alpha MOs
 -- Occupied --
-10.2741 -10.2660 -10.2660  -0.8830  -0.7789  -0.6776  -0.5478  -0.5264
 -0.4838  -0.4645  -0.4249  -0.4151  -0.3967

                    Cartesian Multipole Moments
 -----------------------------------------------------------------
    Charge (ESU x 10^10)
                -0.0000
    Dipole Moment (Debye)
         X       0.0000      Y      -0.0000      Z      -0.0620
       Tot       0.0620
    Quadrupole Moments (Debye-Ang)
        XX     -22.1303     XY      -0.3894     YY     -21.3928
        XZ      -0.0000     YZ      -0.0000     ZZ     -21.9118

 Total job time:  24.76s(wall), 69.07s(cpu)
        *  Thank you very much for using Q-Chem.  Have a nice day.  *
