 Q-Chem 5.2 (devel), Q-Chem, Inc., Pleasanton, CA (2019)
 Q-Chem 5.2.2 for Intel X86 EM64T Linux

User input:
--------------------------------------------------------------
$rem
   JOBTYPE  sp
   EXCHANGE   omegaB97X-D
   BASIS   6-311+G(2df,2pd)
   max_scf_cycles   250
   geom_opt_max_cycles   1500
   basis2 6-31G*
   scf_algorithm rca_diis
   SYM_IGNORE  TRUE
   print_input   true
   geom_opt_dmax   80
   pop_mulliken false
   XC_GRID 000075000302
$end

$molecule
0 1
C       1.2437554859     -0.2425996262     0.2640057961
C       0.0000005103     0.0000055609     -0.5827149531
H       1.8257234137     -1.0663027681     -0.1504926742
H       0.9859564325     -0.5067580709     1.2931503126
H       1.8877600775     0.6368962991     0.2935030106
C       -1.2437553256     0.2425957029     0.2640089595
H       -0.1219592116     -0.8654946857     -1.2382997189
H       0.1219605237     0.8655178214     -1.2382842230
H       -0.9859581472     0.5067770514     1.2931476834
H       -1.8877394639     -0.6369147455     0.2935206962
H       -1.8257443558     1.0662781268     -0.1504998704
--------------------------------------------------------------

             Standard Nuclear Orientation (Angstroms)
    I     Atom           X                Y                Z
 ----------------------------------------------------------------
    1      C       1.2437554859    -0.2425996262     0.2640057961
    2      C       0.0000005103     0.0000055609    -0.5827149531
    3      H       1.8257234137    -1.0663027681    -0.1504926742
    4      H       0.9859564325    -0.5067580709     1.2931503126
    5      H       1.8877600775     0.6368962991     0.2935030106
    6      C      -1.2437553256     0.2425957029     0.2640089595
    7      H      -0.1219592116    -0.8654946857    -1.2382997189
    8      H       0.1219605237     0.8655178214    -1.2382842230
    9      H      -0.9859581472     0.5067770514     1.2931476834
   10      H      -1.8877394639    -0.6369147455     0.2935206962
   11      H      -1.8257443558     1.0662781268    -0.1504998704
 ----------------------------------------------------------------

    7    -119.0930304330      4.31E-06 Convergence criterion met
    6    -119.1363276212      3.92E-06 Convergence criterion met
 Total energy in the final basis set = -119.13632762

                    Orbital Energies (a.u.)
 --------------------------------------------------------------

 Alpha MOs
 -- Occupied --
-10.2718 -10.2635 -10.2635  -0.8809  -0.7766  -0.6774  -0.5446  -0.5260
 -0.4781  -0.4702  -0.4213  -0.4121  -0.3990

                    Cartesian Multipole Moments
 -----------------------------------------------------------------
    Charge (ESU x 10^10)
                 0.0000
    Dipole Moment (Debye)
         X      -0.0000      Y       0.0000      Z      -0.0918
       Tot       0.0918
    Quadrupole Moments (Debye-Ang)
        XX     -22.3983     XY       0.1480     YY     -21.2391
        XZ       0.0000     YZ       0.0000     ZZ     -21.8003

 Total job time:  34.61s(wall), 97.08s(cpu)
        *  Thank you very much for using Q-Chem.  Have a nice day.  *
