 Q-Chem 5.2 (devel), Q-Chem, Inc., Pleasanton, CA (2019)
 Q-Chem 5.2.2 for Intel X86 EM64T Linux

User input:
--------------------------------------------------------------
$rem
   JOBTYPE  sp
   EXCHANGE   omegaB97X-D
   BASIS   6-311+G(2df,2pd)
   max_scf_cycles   250
   geom_opt_max_cycles   1500
   basis2 6-31G*
   scf_algorithm rca_diis
   SYM_IGNORE  TRUE
   print_input   true
   geom_opt_dmax   80
   pop_mulliken false
   XC_GRID 000075000302
$end

$molecule
0 1
C       1.2592744108     0.2330060995     0.0380771427
C       -0.0000028393     -0.6245487216     -0.0013040008
H       1.9170996755     0.2488128146     -0.8282901344
H       1.8177727542     -0.1981633797     0.8765421130
H       1.0278059447     1.2647306079     0.3047584892
C       -1.2592733547     0.2330154743     0.0380703784
H       -0.0000074072     -1.5332003125     0.6069631149
H       -0.0000011000     -0.9390777736     -1.0467525358
H       -1.9171249850     0.2487655045     -0.8282787348
H       -1.0277943487     1.2647562947     0.3046780841
H       -1.8177488107     -0.1980959421     0.8765811024
--------------------------------------------------------------

             Standard Nuclear Orientation (Angstroms)
    I     Atom           X                Y                Z
 ----------------------------------------------------------------
    1      C       1.2592744108     0.2330060995     0.0380771427
    2      C      -0.0000028393    -0.6245487216    -0.0013040008
    3      H       1.9170996755     0.2488128146    -0.8282901344
    4      H       1.8177727542    -0.1981633797     0.8765421130
    5      H       1.0278059447     1.2647306079     0.3047584892
    6      C      -1.2592733547     0.2330154743     0.0380703784
    7      H      -0.0000074072    -1.5332003125     0.6069631149
    8      H      -0.0000011000    -0.9390777736    -1.0467525358
    9      H      -1.9171249850     0.2487655045    -0.8282787348
   10      H      -1.0277943487     1.2647562947     0.3046780841
   11      H      -1.8177488107    -0.1980959421     0.8765811024
 ----------------------------------------------------------------

    7    -119.0748658980      4.66E-06 Convergence criterion met
    5    -119.1188728670      9.97E-06 Convergence criterion met
 Total energy in the final basis set = -119.11887287

                    Orbital Energies (a.u.)
 --------------------------------------------------------------

 Alpha MOs
 -- Occupied --
-10.2723 -10.2632 -10.2632  -0.8837  -0.7763  -0.6779  -0.5463  -0.5290
 -0.4858  -0.4638  -0.4347  -0.4043  -0.3811

                    Cartesian Multipole Moments
 -----------------------------------------------------------------
    Charge (ESU x 10^10)
                -0.0000
    Dipole Moment (Debye)
         X       0.0000      Y      -0.1169      Z      -0.0613
       Tot       0.1319
    Quadrupole Moments (Debye-Ang)
        XX     -22.5763     XY       0.0000     YY     -21.5963
        XZ      -0.0000     YZ      -0.5422     ZZ     -21.4051

 Total job time:  37.04s(wall), 102.52s(cpu)
        *  Thank you very much for using Q-Chem.  Have a nice day.  *
