 Q-Chem 5.2 (devel), Q-Chem, Inc., Pleasanton, CA (2019)
 Q-Chem 5.2.2 for Intel X86 EM64T Linux

User input:
--------------------------------------------------------------
$rem
   JOBTYPE  sp
   EXCHANGE   omegaB97X-D
   BASIS   6-311+G(2df,2pd)
   max_scf_cycles   250
   geom_opt_max_cycles   1500
   basis2 6-31G*
   scf_algorithm rca_diis
   SYM_IGNORE  TRUE
   print_input   true
   geom_opt_dmax   80
   pop_mulliken false
   XC_GRID 000075000302
$end

$molecule
0 1
C       1.2657124103     -0.1172764479     0.2132638246
C       -0.0000005155     0.3917375070     -0.4661457141
H       0.9909845623     -0.4264358757     1.2256051183
H       2.0607539418     0.6236463449     0.2994505566
H       1.6724011593     -0.9899291546     -0.2988079490
C       -1.2657116194     -0.1172822024     0.2132633544
H       0.0000005441     -0.0474751320     -1.4661701111
H       -0.0000031413     1.4757573350     -0.6056543974
H       -0.9909803035     -0.4264725787     1.2255939276
H       -1.6724134080     -0.9899165653     -0.2988296266
H       -2.0607436908     0.6236474358     0.2994760357
--------------------------------------------------------------

             Standard Nuclear Orientation (Angstroms)
    I     Atom           X                Y                Z
 ----------------------------------------------------------------
    1      C       1.2657124103    -0.1172764479     0.2132638246
    2      C      -0.0000005155     0.3917375070    -0.4661457141
    3      H       0.9909845623    -0.4264358757     1.2256051183
    4      H       2.0607539418     0.6236463449     0.2994505566
    5      H       1.6724011593    -0.9899291546    -0.2988079490
    6      C      -1.2657116194    -0.1172822024     0.2132633544
    7      H       0.0000005441    -0.0474751320    -1.4661701111
    8      H      -0.0000031413     1.4757573350    -0.6056543974
    9      H      -0.9909803035    -0.4264725787     1.2255939276
   10      H      -1.6724134080    -0.9899165653    -0.2988296266
   11      H      -2.0607436908     0.6236474358     0.2994760357
 ----------------------------------------------------------------

    7    -119.0905815704      4.18E-06 Convergence criterion met
    6    -119.1341082512      4.11E-06 Convergence criterion met
 Total energy in the final basis set = -119.13410825

                    Orbital Energies (a.u.)
 --------------------------------------------------------------

 Alpha MOs
 -- Occupied --
-10.2720 -10.2641 -10.2641  -0.8826  -0.7757  -0.6786  -0.5454  -0.5326
 -0.4729  -0.4661  -0.4201  -0.4174  -0.3992

                    Cartesian Multipole Moments
 -----------------------------------------------------------------
    Charge (ESU x 10^10)
                 0.0000
    Dipole Moment (Debye)
         X      -0.0000      Y       0.0192      Z      -0.0947
       Tot       0.0966
    Quadrupole Moments (Debye-Ang)
        XX     -22.1469     XY      -0.0000     YY     -21.3834
        XZ      -0.0000     YZ       0.3704     ZZ     -21.9030

 Total job time:  34.18s(wall), 95.72s(cpu)
        *  Thank you very much for using Q-Chem.  Have a nice day.  *
