 Q-Chem 5.2 (devel), Q-Chem, Inc., Pleasanton, CA (2019)
 Q-Chem 5.2.2 for Intel X86 EM64T Linux

User input:
--------------------------------------------------------------
$rem
   JOBTYPE  sp
   EXCHANGE   omegaB97X-D
   BASIS   6-311+G(2df,2pd)
   max_scf_cycles   250
   geom_opt_max_cycles   1500
   basis2 6-31G*
   scf_algorithm rca_diis
   SYM_IGNORE  TRUE
   print_input   true
   geom_opt_dmax   80
   pop_mulliken false
   XC_GRID 000075000302
$end

$molecule
0 1
C       1.0353207944     -0.7305676332     0.2551293733
C       0.0000041411     0.0000153989     -0.5916796589
H       1.5460395751     -0.0033309748     0.8816680692
H       1.7971580904     -1.2453609100     -0.3421527736
H       0.5693444094     -1.4614459548     0.9168052767
C       -1.0353267377     0.7305571370     0.2551479683
H       -0.3816721762     -0.7880473932     -1.2451592054
H       0.3816910242     0.7881116866     -1.2451139466
H       -1.7972299063     1.2452729596     -0.3421149028
H       -0.5693664946     1.4614880275     0.9167773084
H       -1.5459627802     0.0033083224     0.8817375103
--------------------------------------------------------------

             Standard Nuclear Orientation (Angstroms)
    I     Atom           X                Y                Z
 ----------------------------------------------------------------
    1      C       1.0353207944    -0.7305676332     0.2551293733
    2      C       0.0000041411     0.0000153989    -0.5916796589
    3      H       1.5460395751    -0.0033309748     0.8816680692
    4      H       1.7971580904    -1.2453609100    -0.3421527736
    5      H       0.5693444094    -1.4614459548     0.9168052767
    6      C      -1.0353267377     0.7305571370     0.2551479683
    7      H      -0.3816721762    -0.7880473932    -1.2451592054
    8      H       0.3816910242     0.7881116866    -1.2451139466
    9      H      -1.7972299063     1.2452729596    -0.3421149028
   10      H      -0.5693664946     1.4614880275     0.9167773084
   11      H      -1.5459627802     0.0033083224     0.8817375103
 ----------------------------------------------------------------

    7    -119.0977601216      4.62E-06 Convergence criterion met
    6    -119.1408504066      4.00E-06 Convergence criterion met
 Total energy in the final basis set = -119.14085041

                    Orbital Energies (a.u.)
 --------------------------------------------------------------

 Alpha MOs
 -- Occupied --
-10.2739 -10.2659 -10.2659  -0.8822  -0.7776  -0.6780  -0.5473  -0.5253
 -0.4828  -0.4645  -0.4275  -0.4148  -0.3981

                    Cartesian Multipole Moments
 -----------------------------------------------------------------
    Charge (ESU x 10^10)
                 0.0000
    Dipole Moment (Debye)
         X       0.0000      Y       0.0000      Z      -0.0586
       Tot       0.0586
    Quadrupole Moments (Debye-Ang)
        XX     -22.1864     XY       0.1482     YY     -21.2661
        XZ       0.0000     YZ       0.0000     ZZ     -21.9465

 Total job time:  40.89s(wall), 112.21s(cpu)
        *  Thank you very much for using Q-Chem.  Have a nice day.  *
