 Q-Chem 5.3 (devel), Q-Chem, Inc., Pleasanton, CA (2020)
 Q-Chem 5.3.0 for Intel X86 EM64T Linux

User input:
--------------------------------------------------------------
$rem
   JOBTYPE  sp
   EXCHANGE   omegaB97X-D
   BASIS   6-311+G(2df,2pd)
   max_scf_cycles   250
   geom_opt_max_cycles   1500
   basis2 6-31G*
   scf_algorithm rca_diis
   SYM_IGNORE  TRUE
   print_input   true
   geom_opt_dmax   80
   pop_mulliken false
   XC_GRID 000075000302
$end

$molecule
0 1
C       1.2636282913     0.1763624989     0.1503259360
C       -0.0000013864     -0.5439790025     -0.3047247405
H       2.2095922888     -0.2425271579     -0.1904155780
H       1.2510717018     0.1230388091     1.2434600235
H       1.2430002295     1.2313546123     -0.1247899079
C       -1.2636270500     0.1763711125     0.1503224101
H       -0.0000049939     -1.6218975840     -0.1227984833
H       0.0000005988     -0.4106232719     -1.3885720770
H       -2.2095919184     -0.2425454262     -0.1903850216
H       -1.2430164959     1.2313521246     -0.1248364286
H       -1.2510513262     0.1230939511     1.2434588861
$end
--------------------------------------------------------------

             Standard Nuclear Orientation (Angstroms)
    I     Atom           X                Y                Z
 ----------------------------------------------------------------
    1      C       1.2636282913     0.1763624989     0.1503259360
    2      C      -0.0000013864    -0.5439790025    -0.3047247405
    3      H       2.2095922888    -0.2425271579    -0.1904155780
    4      H       1.2510717018     0.1230388091     1.2434600235
    5      H       1.2430002295     1.2313546123    -0.1247899079
    6      C      -1.2636270500     0.1763711125     0.1503224101
    7      H      -0.0000049939    -1.6218975840    -0.1227984833
    8      H       0.0000005988    -0.4106232719    -1.3885720770
    9      H      -2.2095919184    -0.2425454262    -0.1903850216
   10      H      -1.2430164959     1.2313521246    -0.1248364286
   11      H      -1.2510513262     0.1230939511     1.2434588861
 ----------------------------------------------------------------

    7    -119.0962053713      4.68E-06 Convergence criterion met
    6    -119.1393809525      4.14E-06 Convergence criterion met
 Total energy in the final basis set = -119.13938095

                    Orbital Energies (a.u.)
 --------------------------------------------------------------

 Alpha MOs
 -- Occupied --
-10.2742 -10.2663 -10.2663  -0.8834  -0.7768  -0.6783  -0.5483  -0.5292
 -0.4768  -0.4618  -0.4279  -0.4248  -0.3922

                    Cartesian Multipole Moments
 -----------------------------------------------------------------
    Charge (ESU x 10^10)
                 0.0000
    Dipole Moment (Debye)
         X      -0.0000      Y      -0.0292      Z      -0.0830
       Tot       0.0880
    Quadrupole Moments (Debye-Ang)
        XX     -21.8819     XY       0.0000     YY     -21.4646
        XZ      -0.0000     YZ      -0.4431     ZZ     -22.0463

 Total job time:  27.55s(wall), 74.45s(cpu)
        *  Thank you very much for using Q-Chem.  Have a nice day.  *
