 Q-Chem 5.2 (devel), Q-Chem, Inc., Pleasanton, CA (2019)
 Q-Chem 5.2.2 for Intel X86 EM64T Linux

User input:
--------------------------------------------------------------
$rem
   JOBTYPE  sp
   EXCHANGE   omegaB97X-D
   BASIS   6-311+G(2df,2pd)
   max_scf_cycles   250
   geom_opt_max_cycles   1500
   basis2 6-31G*
   scf_algorithm rca_diis
   SYM_IGNORE  TRUE
   print_input   true
   geom_opt_dmax   80
   pop_mulliken false
   XC_GRID 000075000302
$end

$molecule
0 1
C       1.1310414486     -0.0000002061     0.2670048217
C       -0.0000000088     0.0000000078     -0.4260007245
H       1.2977796078     -0.8916485402     0.8719392857
H       1.2977788718     0.8916486885     0.8719386874
H       1.8605447248     0.0000001550     -0.5420027530
C       -1.1310413207     0.0000002494     0.2670048975
H       -0.0000010388     -0.8714690242     -1.0853568694
H       0.0000003651     0.8714688739     -1.0853570895
H       -1.2977788548     -0.8916488724     0.8719383583
H       -1.8605442849     0.0000007032     -0.5420029686
H       -1.2977795706     0.8916486311     0.8719393734
--------------------------------------------------------------

             Standard Nuclear Orientation (Angstroms)
    I     Atom           X                Y                Z
 ----------------------------------------------------------------
    1      C       1.1310414486    -0.0000002061     0.2670048217
    2      C      -0.0000000088     0.0000000078    -0.4260007245
    3      H       1.2977796078    -0.8916485402     0.8719392857
    4      H       1.2977788718     0.8916486885     0.8719386874
    5      H       1.8605447248     0.0000001550    -0.5420027530
    6      C      -1.1310413207     0.0000002494     0.2670048975
    7      H      -0.0000010388    -0.8714690242    -1.0853568694
    8      H       0.0000003651     0.8714688739    -1.0853570895
    9      H      -1.2977788548    -0.8916488724     0.8719383583
   10      H      -1.8605442849     0.0000007032    -0.5420029686
   11      H      -1.2977795706     0.8916486311     0.8719393734
 ----------------------------------------------------------------

    7    -119.0274616472      5.48E-06 Convergence criterion met
    6    -119.0753736795      2.60E-06 Convergence criterion met
 Total energy in the final basis set = -119.07537368

                    Orbital Energies (a.u.)
 --------------------------------------------------------------

 Alpha MOs
 -- Occupied --
-10.2454 -10.2453 -10.2405  -0.9459  -0.8006  -0.6616  -0.5843  -0.5534
 -0.5208  -0.4678  -0.4131  -0.4017  -0.3855

                    Cartesian Multipole Moments
 -----------------------------------------------------------------
    Charge (ESU x 10^10)
                 0.0000
    Dipole Moment (Debye)
         X       0.0000      Y       0.0000      Z      -0.2171
       Tot       0.2171
    Quadrupole Moments (Debye-Ang)
        XX     -23.2041     XY      -0.0000     YY     -20.9386
        XZ       0.0000     YZ      -0.0000     ZZ     -21.6004

 Total job time:  36.17s(wall), 100.69s(cpu)
        *  Thank you very much for using Q-Chem.  Have a nice day.  *
