 Q-Chem 5.2 (devel), Q-Chem, Inc., Pleasanton, CA (2019)
 Q-Chem 5.2.2 for Intel X86 EM64T Linux

User input:
--------------------------------------------------------------
$rem
   JOBTYPE  sp
   EXCHANGE   omegaB97X-D
   BASIS   6-311+G(2df,2pd)
   max_scf_cycles   250
   geom_opt_max_cycles   1500
   basis2 6-31G*
   scf_algorithm rca_diis
   SYM_IGNORE  TRUE
   print_input   true
   geom_opt_dmax   80
   pop_mulliken false
   XC_GRID 000075000302
$end

$molecule
0 1
C       1.2599937969     0.2273706654     0.0544508537
C       -0.0000026432     -0.6238684578     -0.0481686348
H       1.9860007899     0.1878747001     -0.7550792987
H       1.7448722690     -0.1558865316     0.9591296894
H       1.0174613930     1.2743225146     0.2394399092
C       -1.2599926674     0.2273801233     0.0544446071
H       -0.0000071241     -1.5677086607     0.5038392149
H       -0.0000008661     -0.8758390484     -1.1104730871
H       -1.9860232096     0.1878317903     -0.7550627069
H       -1.0174557771     1.2743431474     0.2393626339
H       -1.7448460219     -0.1558195766     0.9591618381
--------------------------------------------------------------

             Standard Nuclear Orientation (Angstroms)
    I     Atom           X                Y                Z
 ----------------------------------------------------------------
    1      C       1.2599937969     0.2273706654     0.0544508537
    2      C      -0.0000026432    -0.6238684578    -0.0481686348
    3      H       1.9860007899     0.1878747001    -0.7550792987
    4      H       1.7448722690    -0.1558865316     0.9591296894
    5      H       1.0174613930     1.2743225146     0.2394399092
    6      C      -1.2599926674     0.2273801233     0.0544446071
    7      H      -0.0000071241    -1.5677086607     0.5038392149
    8      H      -0.0000008661    -0.8758390484    -1.1104730871
    9      H      -1.9860232096     0.1878317903    -0.7550627069
   10      H      -1.0174557771     1.2743431474     0.2393626339
   11      H      -1.7448460219    -0.1558195766     0.9591618381
 ----------------------------------------------------------------

    7    -119.0766515561      4.62E-06 Convergence criterion met
    6    -119.1205882386      4.14E-06 Convergence criterion met
 Total energy in the final basis set = -119.12058824

                    Orbital Energies (a.u.)
 --------------------------------------------------------------

 Alpha MOs
 -- Occupied --
-10.2719 -10.2637 -10.2637  -0.8837  -0.7762  -0.6781  -0.5462  -0.5298
 -0.4826  -0.4649  -0.4347  -0.4075  -0.3804

                    Cartesian Multipole Moments
 -----------------------------------------------------------------
    Charge (ESU x 10^10)
                -0.0000
    Dipole Moment (Debye)
         X       0.0000      Y      -0.0931      Z      -0.0588
       Tot       0.1101
    Quadrupole Moments (Debye-Ang)
        XX     -22.4940     XY       0.0000     YY     -21.5535
        XZ      -0.0000     YZ      -0.5502     ZZ     -21.5137

 Total job time:  40.24s(wall), 111.26s(cpu)
        *  Thank you very much for using Q-Chem.  Have a nice day.  *
