 Q-Chem 5.2 (devel), Q-Chem, Inc., Pleasanton, CA (2019)
 Q-Chem 5.2.2 for Intel X86 EM64T Linux

User input:
--------------------------------------------------------------
$rem
   JOBTYPE  sp
   EXCHANGE   omegaB97X-D
   BASIS   6-311+G(2df,2pd)
   max_scf_cycles   250
   geom_opt_max_cycles   1500
   basis2 6-31G*
   scf_algorithm rca_diis
   SYM_IGNORE  TRUE
   print_input   true
   geom_opt_dmax   80
   pop_mulliken false
   XC_GRID 000075000302
$end

$molecule
0 1
C       1.2095860529     -0.3776940926     0.2666715994
C       0.0000012399     0.0000087421     -0.5800658763
H       2.0459476521     -0.6375806556     -0.3815328087
H       1.0089629970     -1.2411755188     0.9080062455
H       1.5287196399     0.4485980050     0.9026921173
C       -1.2095862954     0.3776889229     0.2666779966
H       -0.1914740415     -0.8530753066     -1.2353069094
H       0.1914781568     0.8531110044     -1.2352833705
H       -1.0089885041     1.2411929682     0.9079891475
H       -1.5286820840     -0.4486020985     0.9027189499
H       -2.0459648741     0.6375286955     -0.3815220725
--------------------------------------------------------------

             Standard Nuclear Orientation (Angstroms)
    I     Atom           X                Y                Z
 ----------------------------------------------------------------
    1      C       1.2095860529    -0.3776940926     0.2666715994
    2      C       0.0000012399     0.0000087421    -0.5800658763
    3      H       2.0459476521    -0.6375806556    -0.3815328087
    4      H       1.0089629970    -1.2411755188     0.9080062455
    5      H       1.5287196399     0.4485980050     0.9026921173
    6      C      -1.2095862954     0.3776889229     0.2666779966
    7      H      -0.1914740415    -0.8530753066    -1.2353069094
    8      H       0.1914781568     0.8531110044    -1.2352833705
    9      H      -1.0089885041     1.2411929682     0.9079891475
   10      H      -1.5286820840    -0.4486020985     0.9027189499
   11      H      -2.0459648741     0.6375286955    -0.3815220725
 ----------------------------------------------------------------

    7    -119.1017197820      4.61E-06 Convergence criterion met
    5    -119.1446612184      9.96E-06 Convergence criterion met
 Total energy in the final basis set = -119.14466122

                    Orbital Energies (a.u.)
 --------------------------------------------------------------

 Alpha MOs
 -- Occupied --
-10.2745 -10.2646 -10.2646  -0.8810  -0.7775  -0.6773  -0.5458  -0.5225
 -0.4850  -0.4647  -0.4192  -0.4172  -0.4045

                    Cartesian Multipole Moments
 -----------------------------------------------------------------
    Charge (ESU x 10^10)
                 0.0000
    Dipole Moment (Debye)
         X      -0.0000      Y       0.0000      Z      -0.1000
       Tot       0.1000
    Quadrupole Moments (Debye-Ang)
        XX     -22.2950     XY       0.1144     YY     -21.3105
        XZ       0.0000     YZ       0.0000     ZZ     -21.7800

 Total job time:  31.58s(wall), 87.49s(cpu)
        *  Thank you very much for using Q-Chem.  Have a nice day.  *
