 Q-Chem 5.3 (devel), Q-Chem, Inc., Pleasanton, CA (2020)
 Q-Chem 5.3.0 for Intel X86 EM64T Linux

User input:
--------------------------------------------------------------
$rem
   JOBTYPE  sp
   EXCHANGE   omegaB97X-D
   BASIS   6-311+G(2df,2pd)
   max_scf_cycles   250
   geom_opt_max_cycles   1500
   basis2 6-31G*
   scf_algorithm rca_diis
   SYM_IGNORE  TRUE
   print_input   true
   geom_opt_dmax   80
   pop_mulliken false
   XC_GRID 000075000302
$end

$molecule
0 1
C       1.2095912468     0.3776934099     0.2666700755
C       0.0000014894     -0.0000084755     -0.5800626763
H       1.0089750399     1.2411690342     0.9080106897
H       2.0459523318     0.6375798051     -0.3815316480
H       1.5287246938     -0.4486008399     0.9026843709
C       -1.2095914992     -0.3776867631     0.2666758045
H       0.1914774951     -0.8531118985     -1.2352793863
H       -0.1914712914     0.8530760138     -1.2353043273
H       -2.0459687564     -0.6375275398     -0.3815242212
H       -1.5286917158     0.4486032868     0.9027121565
H       -1.0089990946     -1.2411853670     0.9079941810
$end
--------------------------------------------------------------

             Standard Nuclear Orientation (Angstroms)
    I     Atom           X                Y                Z
 ----------------------------------------------------------------
    1      C       1.2095912468     0.3776934099     0.2666700755
    2      C       0.0000014894    -0.0000084755    -0.5800626763
    3      H       1.0089750399     1.2411690342     0.9080106897
    4      H       2.0459523318     0.6375798051    -0.3815316480
    5      H       1.5287246938    -0.4486008399     0.9026843709
    6      C      -1.2095914992    -0.3776867631     0.2666758045
    7      H       0.1914774951    -0.8531118985    -1.2352793863
    8      H      -0.1914712914     0.8530760138    -1.2353043273
    9      H      -2.0459687564    -0.6375275398    -0.3815242212
   10      H      -1.5286917158     0.4486032868     0.9027121565
   11      H      -1.0089990946    -1.2411853670     0.9079941810
 ----------------------------------------------------------------

    7    -119.1017197821      4.61E-06 Convergence criterion met
    5    -119.1446612698      9.96E-06 Convergence criterion met
 Total energy in the final basis set = -119.14466127

                    Orbital Energies (a.u.)
 --------------------------------------------------------------

 Alpha MOs
 -- Occupied --
-10.2745 -10.2646 -10.2646  -0.8810  -0.7775  -0.6773  -0.5458  -0.5225
 -0.4850  -0.4647  -0.4192  -0.4172  -0.4045

                    Cartesian Multipole Moments
 -----------------------------------------------------------------
    Charge (ESU x 10^10)
                 0.0000
    Dipole Moment (Debye)
         X      -0.0000      Y      -0.0000      Z      -0.1000
       Tot       0.1000
    Quadrupole Moments (Debye-Ang)
        XX     -22.2949     XY      -0.1144     YY     -21.3105
        XZ      -0.0000     YZ      -0.0000     ZZ     -21.7800

 Total job time:  25.06s(wall), 67.24s(cpu)
        *  Thank you very much for using Q-Chem.  Have a nice day.  *
