 Q-Chem 5.2 (devel), Q-Chem, Inc., Pleasanton, CA (2019)
 Q-Chem 5.2.2 for Intel X86 EM64T Linux

User input:
--------------------------------------------------------------
$rem
   JOBTYPE  sp
   EXCHANGE   omegaB97X-D
   BASIS   6-311+G(2df,2pd)
   max_scf_cycles   250
   geom_opt_max_cycles   1500
   basis2 6-31G*
   scf_algorithm rca_diis
   SYM_IGNORE  TRUE
   print_input   true
   geom_opt_dmax   80
   pop_mulliken false
   XC_GRID 000075000302
$end

$molecule
0 1
C       1.2668005269     -0.0319677200     0.2596911005
C       0.0000000252     -0.0000005664     -0.5870173798
H       1.2905903247     -0.8213660340     0.8443419433
H       1.3216120061     0.9404850454     0.9625582462
H       2.1642559111     -0.0354834420     -0.3597315000
C       -1.2668004261     0.0319667480     0.2596911037
H       -0.0123788890     -0.8737925852     -1.2428276718
H       0.0123789172     0.8737939685     -1.2428295682
H       -1.3216117388     -0.9404846734     0.9625575940
H       -2.1642563406     0.0354830374     -0.3597318709
H       -1.2905903773     0.8213668878     0.8443430220
--------------------------------------------------------------

             Standard Nuclear Orientation (Angstroms)
    I     Atom           X                Y                Z
 ----------------------------------------------------------------
    1      C       1.2668005269    -0.0319677200     0.2596911005
    2      C       0.0000000252    -0.0000005664    -0.5870173798
    3      H       1.2905903247    -0.8213660340     0.8443419433
    4      H       1.3216120061     0.9404850454     0.9625582462
    5      H       2.1642559111    -0.0354834420    -0.3597315000
    6      C      -1.2668004261     0.0319667480     0.2596911037
    7      H      -0.0123788890    -0.8737925852    -1.2428276718
    8      H       0.0123789172     0.8737939685    -1.2428295682
    9      H      -1.3216117388    -0.9404846734     0.9625575940
   10      H      -2.1642563406     0.0354830374    -0.3597318709
   11      H      -1.2905903773     0.8213668878     0.8443430220
 ----------------------------------------------------------------

    7    -119.0727371795      5.23E-06 Convergence criterion met
    5    -119.1168949416      9.61E-06 Convergence criterion met
 Total energy in the final basis set = -119.11689494

                    Orbital Energies (a.u.)
 --------------------------------------------------------------

 Alpha MOs
 -- Occupied --
-10.2751 -10.2642 -10.2642  -0.8832  -0.7815  -0.6816  -0.5480  -0.5251
 -0.4841  -0.4661  -0.4195  -0.4151  -0.4052

                    Cartesian Multipole Moments
 -----------------------------------------------------------------
    Charge (ESU x 10^10)
                 0.0000
    Dipole Moment (Debye)
         X       0.0000      Y      -0.0000      Z      -0.1308
       Tot       0.1308
    Quadrupole Moments (Debye-Ang)
        XX     -22.1701     XY      -0.4070     YY     -21.3608
        XZ      -0.0000     YZ       0.0000     ZZ     -21.8750

 Total job time:  31.28s(wall), 87.06s(cpu)
        *  Thank you very much for using Q-Chem.  Have a nice day.  *
