 Q-Chem 5.2 (devel), Q-Chem, Inc., Pleasanton, CA (2019)
 Q-Chem 5.2.2 for Intel X86 EM64T Linux

User input:
--------------------------------------------------------------
$rem
   JOBTYPE  sp
   EXCHANGE   omegaB97X-D
   BASIS   6-311+G(2df,2pd)
   max_scf_cycles   250
   geom_opt_max_cycles   1500
   basis2 6-31G*
   scf_algorithm rca_diis
   SYM_IGNORE  TRUE
   print_input   true
   geom_opt_dmax   80
   pop_mulliken false
   XC_GRID 000075000302
$end

$molecule
0 1
C       1.2541320362     -0.0000008005     0.2724295780
C       -0.0039495204     -0.0000007605     -0.5872400398
H       1.2907650658     -0.8597327152     0.8979787359
H       1.2907651152     0.8597341492     0.8979806710
H       2.2086519514     -0.0000005502     -0.3808321791
C       -1.2801439841     -0.0000007727     0.2464075064
H       -0.0000322184     -0.8738700256     -1.2430536209
H       -0.0000322500     0.8738706749     -1.2430549622
H       -1.3197090833     -0.9014786852     0.9096497462
H       -2.1207380596     0.0000001356     -0.3388719615
H       -1.3197091134     0.9014800162     0.9096515448
--------------------------------------------------------------

             Standard Nuclear Orientation (Angstroms)
    I     Atom           X                Y                Z
 ----------------------------------------------------------------
    1      C       1.2541320362    -0.0000008005     0.2724295780
    2      C      -0.0039495204    -0.0000007605    -0.5872400398
    3      H       1.2907650658    -0.8597327152     0.8979787359
    4      H       1.2907651152     0.8597341492     0.8979806710
    5      H       2.2086519514    -0.0000005502    -0.3808321791
    6      C      -1.2801439841    -0.0000007727     0.2464075064
    7      H      -0.0000322184    -0.8738700256    -1.2430536209
    8      H      -0.0000322500     0.8738706749    -1.2430549622
    9      H      -1.3197090833    -0.9014786852     0.9096497462
   10      H      -2.1207380596     0.0000001356    -0.3388719615
   11      H      -1.3197091134     0.9014800162     0.9096515448
 ----------------------------------------------------------------

    7    -119.0956944858      4.69E-06 Convergence criterion met
    5    -119.1389099923      9.98E-06 Convergence criterion met
 Total energy in the final basis set = -119.13890999

                    Orbital Energies (a.u.)
 --------------------------------------------------------------

 Alpha MOs
 -- Occupied --
-10.2745 -10.2655 -10.2640  -0.8817  -0.7783  -0.6785  -0.5462  -0.5256
 -0.4819  -0.4640  -0.4218  -0.4142  -0.4074

                    Cartesian Multipole Moments
 -----------------------------------------------------------------
    Charge (ESU x 10^10)
                 0.0000
    Dipole Moment (Debye)
         X      -0.0826      Y      -0.0000      Z      -0.0831
       Tot       0.1172
    Quadrupole Moments (Debye-Ang)
        XX     -22.1985     XY      -0.0000     YY     -21.3625
        XZ       0.1295     YZ      -0.0000     ZZ     -21.8344

 Total job time:  31.18s(wall), 86.59s(cpu)
        *  Thank you very much for using Q-Chem.  Have a nice day.  *
