 Q-Chem 5.2 (devel), Q-Chem, Inc., Pleasanton, CA (2019)
 Q-Chem 5.2.2 for Intel X86 EM64T Linux

User input:
--------------------------------------------------------------
$rem
   JOBTYPE  sp
   EXCHANGE   omegaB97X-D
   BASIS   6-311+G(2df,2pd)
   max_scf_cycles   250
   geom_opt_max_cycles   1500
   basis2 6-31G*
   scf_algorithm rca_diis
   SYM_IGNORE  TRUE
   print_input   true
   geom_opt_dmax   80
   pop_mulliken false
   XC_GRID 000075000302
$end

$molecule
0 1
C       1.2683460886     -0.0000015568     0.2593880304
C       0.0000008720     -0.0000004310     -0.5735279816
H       1.2861719907     -0.8254019451     0.9763655200
H       1.2861774055     0.8254001647     0.9763641967
H       2.1334110128     0.0000046785     -0.3988343919
C       -1.2683445786     0.0000010657     0.2593893373
H       -0.0000008299     -0.7694393158     -1.3559937672
H       -0.0000008646     0.7694387443     -1.3559934469
H       -1.2861762728     -0.8254070610     0.9763578060
H       -2.1334130520     -0.0000021236     -0.3988289062
H       -1.2861718323     0.8254084460     0.9763586223
--------------------------------------------------------------

             Standard Nuclear Orientation (Angstroms)
    I     Atom           X                Y                Z
 ----------------------------------------------------------------
    1      C       1.2683460886    -0.0000015568     0.2593880304
    2      C       0.0000008720    -0.0000004310    -0.5735279816
    3      H       1.2861719907    -0.8254019451     0.9763655200
    4      H       1.2861774055     0.8254001647     0.9763641967
    5      H       2.1334110128     0.0000046785    -0.3988343919
    6      C      -1.2683445786     0.0000010657     0.2593893373
    7      H      -0.0000008299    -0.7694393158    -1.3559937672
    8      H      -0.0000008646     0.7694387443    -1.3559934469
    9      H      -1.2861762728    -0.8254070610     0.9763578060
   10      H      -2.1334130520    -0.0000021236    -0.3988289062
   11      H      -1.2861718323     0.8254084460     0.9763586223
 ----------------------------------------------------------------

    7    -119.0883480295      5.15E-06 Convergence criterion met
    6    -119.1321525169      4.14E-06 Convergence criterion met
 Total energy in the final basis set = -119.13215252

                    Orbital Energies (a.u.)
 --------------------------------------------------------------

 Alpha MOs
 -- Occupied --
-10.2742 -10.2666 -10.2666  -0.8821  -0.7785  -0.6888  -0.5328  -0.5225
 -0.5031  -0.4466  -0.4458  -0.4176  -0.3818

                    Cartesian Multipole Moments
 -----------------------------------------------------------------
    Charge (ESU x 10^10)
                -0.0000
    Dipole Moment (Debye)
         X      -0.0000      Y       0.0000      Z      -0.0852
       Tot       0.0852
    Quadrupole Moments (Debye-Ang)
        XX     -22.2609     XY       0.0000     YY     -22.4779
        XZ       0.0000     YZ      -0.0000     ZZ     -20.5917

 Total job time:  34.90s(wall), 97.74s(cpu)
        *  Thank you very much for using Q-Chem.  Have a nice day.  *
