 Q-Chem 5.3 (devel), Q-Chem, Inc., Pleasanton, CA (2020)
 Q-Chem 5.3.0 for Intel X86 EM64T Linux

User input:
--------------------------------------------------------------
$rem
   JOBTYPE  sp
   EXCHANGE   omegaB97X-D
   BASIS   6-311+G(2df,2pd)
   max_scf_cycles   250
   geom_opt_max_cycles   1500
   basis2 6-31G*
   scf_algorithm rca_diis
   SYM_IGNORE  TRUE
   print_input   true
   geom_opt_dmax   80
   pop_mulliken false
   XC_GRID 000075000302
$end

$molecule
0 1
C       1.2555921135     -0.0000013676     0.3086165201
C       0.0000001232     -0.0000015076     -0.5497231801
H       1.2997128370     -0.8176442159     0.8965482154
H       1.2997128409     0.8176463292     0.8965512213
H       2.3095297114     -0.0000008547     -0.4283421767
C       -1.2555913097     -0.0000016515     0.3086173009
H       0.0000000474     -0.8993762094     -1.2279877056
H       -0.0000001033     0.8993775816     -1.2279904818
H       -1.2997118901     -0.8176425037     0.8965474232
H       -2.3095323883     -0.0000003613     -0.4283434668
H       -1.2997120427     0.8176454269     0.8965513491
$end
--------------------------------------------------------------

             Standard Nuclear Orientation (Angstroms)
    I     Atom           X                Y                Z
 ----------------------------------------------------------------
    1      C       1.2555921135    -0.0000013676     0.3086165201
    2      C       0.0000001232    -0.0000015076    -0.5497231801
    3      H       1.2997128370    -0.8176442159     0.8965482154
    4      H       1.2997128409     0.8176463292     0.8965512213
    5      H       2.3095297114    -0.0000008547    -0.4283421767
    6      C      -1.2555913097    -0.0000016515     0.3086173009
    7      H       0.0000000474    -0.8993762094    -1.2279877056
    8      H      -0.0000001033     0.8993775816    -1.2279904818
    9      H      -1.2997118901    -0.8176425037     0.8965474232
   10      H      -2.3095323883    -0.0000003613    -0.4283434668
   11      H      -1.2997120427     0.8176454269     0.8965513491
 ----------------------------------------------------------------

    7    -119.0486256137      4.26E-06 Convergence criterion met
    5    -119.0928995829      9.76E-06 Convergence criterion met
 Total energy in the final basis set = -119.09289958

                    Orbital Energies (a.u.)
 --------------------------------------------------------------

 Alpha MOs
 -- Occupied --
-10.2826 -10.2680 -10.2680  -0.8861  -0.7816  -0.6824  -0.5572  -0.4993
 -0.4886  -0.4868  -0.4154  -0.4130  -0.3984

                    Cartesian Multipole Moments
 -----------------------------------------------------------------
    Charge (ESU x 10^10)
                 0.0000
    Dipole Moment (Debye)
         X       0.0000      Y      -0.0000      Z       0.2583
       Tot       0.2583
    Quadrupole Moments (Debye-Ang)
        XX     -23.0494     XY      -0.0000     YY     -21.4452
        XZ      -0.0000     YZ       0.0000     ZZ     -21.6494

 Total job time:  26.61s(wall), 70.31s(cpu)
        *  Thank you very much for using Q-Chem.  Have a nice day.  *
