 Q-Chem 5.3 (devel), Q-Chem, Inc., Pleasanton, CA (2020)
 Q-Chem 5.3.0 for Intel X86 EM64T Linux

User input:
--------------------------------------------------------------
$rem
   JOBTYPE  sp
   EXCHANGE   omegaB97X-D
   BASIS   6-311+G(2df,2pd)
   max_scf_cycles   250
   geom_opt_max_cycles   1500
   basis2 6-31G*
   scf_algorithm rca_diis
   SYM_IGNORE  TRUE
   print_input   true
   geom_opt_dmax   80
   pop_mulliken false
   XC_GRID 000075000302
$end

$molecule
0 1
C       1.2381694298     0.2696697026     0.2647128863
C       0.0000007783     -0.0000059054     -0.5820075040
H       0.9770596762     0.6730513388     1.2469735380
H       1.8784198211     1.0000291343     -0.2305441027
H       1.8254612662     -0.6362789614     0.4179049371
C       -1.2381695091     -0.2696645062     0.2647157811
H       0.1357708218     -0.8635044410     -1.2375179968
H       -0.1357675304     0.8634789033     -1.2375359720
H       -1.8784407251     -0.9999992354     -0.2305515290
H       -1.8254397018     0.6362949678     0.4179266605
H       -0.9770643875     -0.6730703314     1.2469683205
$end
--------------------------------------------------------------

             Standard Nuclear Orientation (Angstroms)
    I     Atom           X                Y                Z
 ----------------------------------------------------------------
    1      C       1.2381694298     0.2696697026     0.2647128863
    2      C       0.0000007783    -0.0000059054    -0.5820075040
    3      H       0.9770596762     0.6730513388     1.2469735380
    4      H       1.8784198211     1.0000291343    -0.2305441027
    5      H       1.8254612662    -0.6362789614     0.4179049371
    6      C      -1.2381695091    -0.2696645062     0.2647157811
    7      H       0.1357708218    -0.8635044410    -1.2375179968
    8      H      -0.1357675304     0.8634789033    -1.2375359720
    9      H      -1.8784407251    -0.9999992354    -0.2305515290
   10      H      -1.8254397018     0.6362949678     0.4179266605
   11      H      -0.9770643875    -0.6730703314     1.2469683205
 ----------------------------------------------------------------

    7    -119.0954353572      4.42E-06 Convergence criterion met
    6    -119.1386158519      3.90E-06 Convergence criterion met
 Total energy in the final basis set = -119.13861585

                    Orbital Energies (a.u.)
 --------------------------------------------------------------

 Alpha MOs
 -- Occupied --
-10.2723 -10.2639 -10.2639  -0.8809  -0.7769  -0.6772  -0.5448  -0.5248
 -0.4803  -0.4693  -0.4202  -0.4130  -0.4007

                    Cartesian Multipole Moments
 -----------------------------------------------------------------
    Charge (ESU x 10^10)
                 0.0000
    Dipole Moment (Debye)
         X      -0.0000      Y      -0.0000      Z      -0.0898
       Tot       0.0898
    Quadrupole Moments (Debye-Ang)
        XX     -22.3628     XY      -0.1357     YY     -21.2600
        XZ      -0.0000     YZ      -0.0000     ZZ     -21.7976

 Total job time:  25.50s(wall), 70.97s(cpu)
        *  Thank you very much for using Q-Chem.  Have a nice day.  *
