 Q-Chem 5.2 (devel), Q-Chem, Inc., Pleasanton, CA (2019)
 Q-Chem 5.2.2 for Intel X86 EM64T Linux

User input:
--------------------------------------------------------------
$rem
   JOBTYPE  sp
   EXCHANGE   omegaB97X-D
   BASIS   6-311+G(2df,2pd)
   max_scf_cycles   250
   geom_opt_max_cycles   1500
   basis2 6-31G*
   scf_algorithm rca_diis
   SYM_IGNORE  TRUE
   print_input   true
   geom_opt_dmax   80
   pop_mulliken false
   XC_GRID 000075000302
$end

$molecule
0 1
C       1.2666011442     -0.0390858853     0.2559269119
C       0.0000008898     -0.0000003995     -0.5907816810
H       1.1422419721     -0.8724532387     0.9408076265
H       1.4689824317     0.8577197465     0.8560742443
H       2.1526819739     0.1811025618     -0.3403108914
C       -1.2665997036     0.0390847121     0.2559285801
H       -0.0396344403     -0.8729912340     -1.2465807262
H       0.0396322044     0.8729906964     -1.2465805868
H       -1.4689800546     -0.8577267126     0.8560670972
H       -2.1526843695     -0.1810995730     -0.3403053841
H       -1.1422421086     0.8724599924     0.9407998285
--------------------------------------------------------------

             Standard Nuclear Orientation (Angstroms)
    I     Atom           X                Y                Z
 ----------------------------------------------------------------
    1      C       1.2666011442    -0.0390858853     0.2559269119
    2      C       0.0000008898    -0.0000003995    -0.5907816810
    3      H       1.1422419721    -0.8724532387     0.9408076265
    4      H       1.4689824317     0.8577197465     0.8560742443
    5      H       2.1526819739     0.1811025618    -0.3403108914
    6      C      -1.2665997036     0.0390847121     0.2559285801
    7      H      -0.0396344403    -0.8729912340    -1.2465807262
    8      H       0.0396322044     0.8729906964    -1.2465805868
    9      H      -1.4689800546    -0.8577267126     0.8560670972
   10      H      -2.1526843695    -0.1810995730    -0.3403053841
   11      H      -1.1422421086     0.8724599924     0.9407998285
 ----------------------------------------------------------------

    7    -119.0705705875      6.15E-06 Convergence criterion met
    6    -119.1152710465      4.05E-06 Convergence criterion met
 Total energy in the final basis set = -119.11527105

                    Orbital Energies (a.u.)
 --------------------------------------------------------------

 Alpha MOs
 -- Occupied --
-10.2746 -10.2658 -10.2658  -0.8830  -0.7810  -0.6810  -0.5530  -0.5440
 -0.4789  -0.4443  -0.4370  -0.4128  -0.3815

                    Cartesian Multipole Moments
 -----------------------------------------------------------------
    Charge (ESU x 10^10)
                 0.0000
    Dipole Moment (Debye)
         X      -0.0000      Y       0.0000      Z      -0.0552
       Tot       0.0552
    Quadrupole Moments (Debye-Ang)
        XX     -22.1020     XY       1.6384     YY     -21.4515
        XZ       0.0000     YZ      -0.0000     ZZ     -22.0042

 Total job time:  35.08s(wall), 98.31s(cpu)
        *  Thank you very much for using Q-Chem.  Have a nice day.  *
