 Q-Chem 5.2 (devel), Q-Chem, Inc., Pleasanton, CA (2019)
 Q-Chem 5.2.2 for Intel X86 EM64T Linux

User input:
--------------------------------------------------------------
$rem
   JOBTYPE  sp
   EXCHANGE   omegaB97X-D
   BASIS   6-311+G(2df,2pd)
   max_scf_cycles   250
   geom_opt_max_cycles   1500
   basis2 6-31G*
   scf_algorithm rca_diis
   SYM_IGNORE  TRUE
   print_input   true
   geom_opt_dmax   80
   pop_mulliken false
   XC_GRID 000075000302
$end

$molecule
0 1
C       1.2671308654     0.0262152010     0.2572099335
C       -0.0000000390     -0.0936619398     -0.5810800626
H       1.4800293077     -0.8960254407     0.8008091991
H       1.1557412159     0.8243645917     0.9944681106
H       2.1359720333     0.2602398022     -0.3588028229
C       -1.2671308843     0.0262167715     0.2572097178
H       -0.0000004811     -1.0362698616     -1.1337333800
H       0.0000004173     0.7003367583     -1.3315097806
H       -1.4800257692     -0.8960216232     0.8008142878
H       -2.1359731225     0.2602357137     -0.3588036222
H       -1.1557436040     0.8243706929     0.9944634382
--------------------------------------------------------------

             Standard Nuclear Orientation (Angstroms)
    I     Atom           X                Y                Z
 ----------------------------------------------------------------
    1      C       1.2671308654     0.0262152010     0.2572099335
    2      C      -0.0000000390    -0.0936619398    -0.5810800626
    3      H       1.4800293077    -0.8960254407     0.8008091991
    4      H       1.1557412159     0.8243645917     0.9944681106
    5      H       2.1359720333     0.2602398022    -0.3588028229
    6      C      -1.2671308843     0.0262167715     0.2572097178
    7      H      -0.0000004811    -1.0362698616    -1.1337333800
    8      H       0.0000004173     0.7003367583    -1.3315097806
    9      H      -1.4800257692    -0.8960216232     0.8008142878
   10      H      -2.1359731225     0.2602357137    -0.3588036222
   11      H      -1.1557436040     0.8243706929     0.9944634382
 ----------------------------------------------------------------

    7    -119.1007571085      4.42E-06 Convergence criterion met
    6    -119.1437777726      3.90E-06 Convergence criterion met
 Total energy in the final basis set = -119.14377777

                    Orbital Energies (a.u.)
 --------------------------------------------------------------

 Alpha MOs
 -- Occupied --
-10.2736 -10.2648 -10.2648  -0.8812  -0.7768  -0.6778  -0.5456  -0.5253
 -0.4814  -0.4639  -0.4189  -0.4179  -0.4053

                    Cartesian Multipole Moments
 -----------------------------------------------------------------
    Charge (ESU x 10^10)
                -0.0000
    Dipole Moment (Debye)
         X       0.0000      Y      -0.0059      Z      -0.0870
       Tot       0.0872
    Quadrupole Moments (Debye-Ang)
        XX     -22.2037     XY      -0.0000     YY     -21.3392
        XZ      -0.0000     YZ      -0.0680     ZZ     -21.8422

 Total job time:  36.01s(wall), 100.43s(cpu)
        *  Thank you very much for using Q-Chem.  Have a nice day.  *
