 Q-Chem 5.2 (devel), Q-Chem, Inc., Pleasanton, CA (2019)
 Q-Chem 5.2.2 for Intel X86 EM64T Linux

User input:
--------------------------------------------------------------
$rem
   JOBTYPE  sp
   EXCHANGE   omegaB97X-D
   BASIS   6-311+G(2df,2pd)
   max_scf_cycles   250
   geom_opt_max_cycles   1500
   basis2 6-31G*
   scf_algorithm rca_diis
   SYM_IGNORE  TRUE
   print_input   true
   geom_opt_dmax   80
   pop_mulliken false
   XC_GRID 000075000302
$end

$molecule
0 1
C       1.3690941820     0.0000004390     0.0916796850
C       0.0672736563     0.0000000984     -0.5930412663
H       1.1442277616     -0.8192278664     0.7809128348
H       1.1442287421     0.8192280453     0.7809139513
H       2.4214229455     -0.0000000480     -0.1762080740
C       -1.1510578923     -0.0000002427     0.4085462456
H       -0.1806043829     -0.8627140411     -1.2159678360
H       -0.1806058433     0.8627137423     -1.2159680348
H       -1.4195763364     -0.8890486048     0.9787283316
H       -1.7948281732     0.0000004816     -0.4772791177
H       -1.4195747200     0.8890486624     0.9787282994
--------------------------------------------------------------

             Standard Nuclear Orientation (Angstroms)
    I     Atom           X                Y                Z
 ----------------------------------------------------------------
    1      C       1.3690941820     0.0000004390     0.0916796850
    2      C       0.0672736563     0.0000000984    -0.5930412663
    3      H       1.1442277616    -0.8192278664     0.7809128348
    4      H       1.1442287421     0.8192280453     0.7809139513
    5      H       2.4214229455    -0.0000000480    -0.1762080740
    6      C      -1.1510578923    -0.0000002427     0.4085462456
    7      H      -0.1806043829    -0.8627140411    -1.2159678360
    8      H      -0.1806058433     0.8627137423    -1.2159680348
    9      H      -1.4195763364    -0.8890486048     0.9787283316
   10      H      -1.7948281732     0.0000004816    -0.4772791177
   11      H      -1.4195747200     0.8890486624     0.9787282994
 ----------------------------------------------------------------

    7    -119.0482643807      5.24E-06 Convergence criterion met
    6    -119.0932524528      4.62E-06 Convergence criterion met
 Total energy in the final basis set = -119.09325245

                    Orbital Energies (a.u.)
 --------------------------------------------------------------

 Alpha MOs
 -- Occupied --
-10.2852 -10.2687 -10.2619  -0.8947  -0.7843  -0.6799  -0.5486  -0.5422
 -0.4904  -0.4605  -0.4124  -0.3991  -0.3982

                    Cartesian Multipole Moments
 -----------------------------------------------------------------
    Charge (ESU x 10^10)
                -0.0000
    Dipole Moment (Debye)
         X      -0.1315      Y      -0.0000      Z      -0.0718
       Tot       0.1498
    Quadrupole Moments (Debye-Ang)
        XX     -21.9553     XY       0.0000     YY     -21.6647
        XZ      -0.0947     YZ       0.0000     ZZ     -22.0709

 Total job time:  36.54s(wall), 102.18s(cpu)
        *  Thank you very much for using Q-Chem.  Have a nice day.  *
