 Q-Chem 5.3 (devel), Q-Chem, Inc., Pleasanton, CA (2020)
 Q-Chem 5.3.0 for Intel X86 EM64T Linux

User input:
--------------------------------------------------------------
$rem
   JOBTYPE  sp
   EXCHANGE   omegaB97X-D
   BASIS   6-311+G(2df,2pd)
   max_scf_cycles   250
   geom_opt_max_cycles   1500
   basis2 6-31G*
   scf_algorithm rca_diis
   SYM_IGNORE  TRUE
   print_input   true
   geom_opt_dmax   80
   pop_mulliken false
   XC_GRID 000075000302
$end

$molecule
0 1
C       1.2552073492     -0.2485532396     -0.0376567607
C       -0.0000030075     0.5713126430     0.2361744538
H       2.0273866419     0.4201188582     0.3617368504
H       1.5374672277     -0.5216712727     -1.0511834621
H       1.2752808058     -1.1522867847     0.5722487360
C       -1.2552083396     -0.2485587701     -0.0376664350
H       -0.0000013394     1.1756039494     -0.6728200352
H       -0.0000081025     1.2579207604     1.0874354181
H       -2.0273920794     0.4200580478     0.3618087921
H       -1.2752311783     -1.1523396561     0.5721713123
H       -1.5374980386     -0.5216038696     -1.0512038508
$end
--------------------------------------------------------------

             Standard Nuclear Orientation (Angstroms)
    I     Atom           X                Y                Z
 ----------------------------------------------------------------
    1      C       1.2552073492    -0.2485532396    -0.0376567607
    2      C      -0.0000030075     0.5713126430     0.2361744538
    3      H       2.0273866419     0.4201188582     0.3617368504
    4      H       1.5374672277    -0.5216712727    -1.0511834621
    5      H       1.2752808058    -1.1522867847     0.5722487360
    6      C      -1.2552083396    -0.2485587701    -0.0376664350
    7      H      -0.0000013394     1.1756039494    -0.6728200352
    8      H      -0.0000081025     1.2579207604     1.0874354181
    9      H      -2.0273920794     0.4200580478     0.3618087921
   10      H      -1.2752311783    -1.1523396561     0.5721713123
   11      H      -1.5374980386    -0.5216038696    -1.0512038508
 ----------------------------------------------------------------

    7    -119.0762431294      5.80E-06 Convergence criterion met
    5    -119.1200035797      9.23E-06 Convergence criterion met
 Total energy in the final basis set = -119.12000358

                    Orbital Energies (a.u.)
 --------------------------------------------------------------

 Alpha MOs
 -- Occupied --
-10.2756 -10.2633 -10.2633  -0.8844  -0.7782  -0.6768  -0.5473  -0.5186
 -0.4986  -0.4639  -0.4404  -0.3908  -0.3877

                    Cartesian Multipole Moments
 -----------------------------------------------------------------
    Charge (ESU x 10^10)
                -0.0000
    Dipole Moment (Debye)
         X       0.0000      Y       0.2129      Z      -0.0631
       Tot       0.2221
    Quadrupole Moments (Debye-Ang)
        XX     -22.8932     XY      -0.0000     YY     -21.6800
        XZ      -0.0000     YZ       0.5731     ZZ     -21.0376

 Total job time:  24.66s(wall), 66.67s(cpu)
        *  Thank you very much for using Q-Chem.  Have a nice day.  *
