 Q-Chem 5.2 (devel), Q-Chem, Inc., Pleasanton, CA (2019)
 Q-Chem 5.2.2 for Intel X86 EM64T Linux

User input:
--------------------------------------------------------------
$rem
   JOBTYPE  sp
   EXCHANGE   omegaB97X-D
   BASIS   6-311+G(2df,2pd)
   max_scf_cycles   250
   geom_opt_max_cycles   1500
   basis2 6-31G*
   scf_algorithm rca_diis
   SYM_IGNORE  TRUE
   print_input   true
   geom_opt_dmax   80
   pop_mulliken false
   XC_GRID 000075000302
$end

$molecule
0 1
C       1.3126061469     0.0000000915     0.3693131831
C       0.0000012564     0.0000001936     -0.5150378587
H       1.0801610629     -0.9418025652     0.8585875261
H       1.0801612824     0.9418027621     0.8585876287
H       1.9890946541     0.0000001481     -0.4790707889
C       -1.3126032725     -0.0000000034     0.3693122230
H       0.0000008274     -0.8707657553     -1.1793775053
H       0.0000015030     0.8707659227     -1.1793778341
H       -1.0801641341     -0.9418033225     0.8585882745
H       -1.9890966564     0.0000001317     -0.4790681944
H       -1.0801627306     0.9418030625     0.8585883650
--------------------------------------------------------------

             Standard Nuclear Orientation (Angstroms)
    I     Atom           X                Y                Z
 ----------------------------------------------------------------
    1      C       1.3126061469     0.0000000915     0.3693131831
    2      C       0.0000012564     0.0000001936    -0.5150378587
    3      H       1.0801610629    -0.9418025652     0.8585875261
    4      H       1.0801612824     0.9418027621     0.8585876287
    5      H       1.9890946541     0.0000001481    -0.4790707889
    6      C      -1.3126032725    -0.0000000034     0.3693122230
    7      H       0.0000008274    -0.8707657553    -1.1793775053
    8      H       0.0000015030     0.8707659227    -1.1793778341
    9      H      -1.0801641341    -0.9418033225     0.8585882745
   10      H      -1.9890966564     0.0000001317    -0.4790681944
   11      H      -1.0801627306     0.9418030625     0.8585883650
 ----------------------------------------------------------------

    7    -119.0394087704      7.31E-06 Convergence criterion met
    6    -119.0849313414      4.07E-06 Convergence criterion met
 Total energy in the final basis set = -119.08493134

                    Orbital Energies (a.u.)
 --------------------------------------------------------------

 Alpha MOs
 -- Occupied --
-10.2760 -10.2703 -10.2703  -0.8888  -0.7802  -0.6615  -0.5683  -0.5310
 -0.4895  -0.4850  -0.4150  -0.3985  -0.3787

                    Cartesian Multipole Moments
 -----------------------------------------------------------------
    Charge (ESU x 10^10)
                 0.0000
    Dipole Moment (Debye)
         X      -0.0000      Y      -0.0000      Z      -0.5252
       Tot       0.5252
    Quadrupole Moments (Debye-Ang)
        XX     -24.7707     XY       0.0000     YY     -20.8062
        XZ      -0.0000     YZ      -0.0000     ZZ     -22.4710

 Total job time:  35.49s(wall), 99.22s(cpu)
        *  Thank you very much for using Q-Chem.  Have a nice day.  *
