 Q-Chem 5.3 (devel), Q-Chem, Inc., Pleasanton, CA (2020)
 Q-Chem 5.3.0 for Intel X86 EM64T Linux

User input:
--------------------------------------------------------------
$rem
   JOBTYPE  sp
   EXCHANGE   omegaB97X-D
   BASIS   6-311+G(2df,2pd)
   max_scf_cycles   250
   geom_opt_max_cycles   1500
   basis2 6-31G*
   scf_algorithm rca_diis
   SYM_IGNORE  TRUE
   print_input   true
   geom_opt_dmax   80
   pop_mulliken false
   XC_GRID 000075000302
$end

$molecule
0 1
C       0.8374099115     0.9509437917     0.2540396365
C       0.0000091510     -0.0000205938     -0.5928087503
H       1.7963549682     0.5308990809     0.5857915580
H       0.2620136464     1.1953358404     1.1414800239
H       1.0352652052     1.8863131322     -0.2704222431
C       -0.8374196159     -0.9509253396     0.2540784068
H       0.5108540019     -0.7132636962     -1.2440234725
H       -0.5108115608     0.7131761428     -1.2440913554
H       -0.2619715284     -1.1953971385     1.1414650416
H       -1.0354062846     -1.8862661960     -0.2703844502
H       -1.7962979550     -0.5307943579     0.5859206235
$end
--------------------------------------------------------------

             Standard Nuclear Orientation (Angstroms)
    I     Atom           X                Y                Z
 ----------------------------------------------------------------
    1      C       0.8374099115     0.9509437917     0.2540396365
    2      C       0.0000091510    -0.0000205938    -0.5928087503
    3      H       1.7963549682     0.5308990809     0.5857915580
    4      H       0.2620136464     1.1953358404     1.1414800239
    5      H       1.0352652052     1.8863131322    -0.2704222431
    6      C      -0.8374196159    -0.9509253396     0.2540784068
    7      H       0.5108540019    -0.7132636962    -1.2440234725
    8      H      -0.5108115608     0.7131761428    -1.2440913554
    9      H      -0.2619715284    -1.1953971385     1.1414650416
   10      H      -1.0354062846    -1.8862661960    -0.2703844502
   11      H      -1.7962979550    -0.5307943579     0.5859206235
 ----------------------------------------------------------------

    7    -119.0896172409      4.67E-06 Convergence criterion met
    6    -119.1330856230      4.10E-06 Convergence criterion met
 Total energy in the final basis set = -119.13308562

                    Orbital Energies (a.u.)
 --------------------------------------------------------------

 Alpha MOs
 -- Occupied --
-10.2728 -10.2655 -10.2655  -0.8829  -0.7782  -0.6779  -0.5467  -0.5287
 -0.4803  -0.4676  -0.4238  -0.4141  -0.3949

                    Cartesian Multipole Moments
 -----------------------------------------------------------------
    Charge (ESU x 10^10)
                -0.0000
    Dipole Moment (Debye)
         X       0.0000      Y      -0.0000      Z      -0.0459
       Tot       0.0459
    Quadrupole Moments (Debye-Ang)
        XX     -22.1270     XY      -0.4236     YY     -21.3773
        XZ      -0.0000     YZ      -0.0000     ZZ     -21.9624

 Total job time:  26.59s(wall), 72.78s(cpu)
        *  Thank you very much for using Q-Chem.  Have a nice day.  *
