 Q-Chem 5.3 (devel), Q-Chem, Inc., Pleasanton, CA (2020)
 Q-Chem 5.3.0 for Intel X86 EM64T Linux

User input:
--------------------------------------------------------------
$rem
   JOBTYPE  sp
   EXCHANGE   omegaB97X-D
   BASIS   6-311+G(2df,2pd)
   max_scf_cycles   250
   geom_opt_max_cycles   1500
   basis2 6-31G*
   scf_algorithm rca_diis
   SYM_IGNORE  TRUE
   print_input   true
   geom_opt_dmax   80
   pop_mulliken false
   XC_GRID 000075000302
$end

$molecule
0 1
C       1.2645693306     0.1539612458     0.1781889843
C       -0.0000010220     -0.4911864905     -0.3762195880
H       2.1878453582     -0.4006949494     0.0133852954
H       1.1160733961     0.2368601612     1.2590197336
H       1.4029175105     1.1629232806     -0.2116545303
C       -1.2645682553     0.1539691101     0.1781862178
H       -0.0000041912     -1.5829954173     -0.3234897214
H       0.0000009414     -0.2319547804     -1.4371088143
H       -2.1878391055     -0.4007059557     0.0134145956
H       -1.4029346783     1.1629159814     -0.2116895311
H       -1.1160593450     0.2369084801     1.2590123772
$end
--------------------------------------------------------------

             Standard Nuclear Orientation (Angstroms)
    I     Atom           X                Y                Z
 ----------------------------------------------------------------
    1      C       1.2645693306     0.1539612458     0.1781889843
    2      C      -0.0000010220    -0.4911864905    -0.3762195880
    3      H       2.1878453582    -0.4006949494     0.0133852954
    4      H       1.1160733961     0.2368601612     1.2590197336
    5      H       1.4029175105     1.1629232806    -0.2116545303
    6      C      -1.2645682553     0.1539691101     0.1781862178
    7      H      -0.0000041912    -1.5829954173    -0.3234897214
    8      H       0.0000009414    -0.2319547804    -1.4371088143
    9      H      -2.1878391055    -0.4007059557     0.0134145956
   10      H      -1.4029346783     1.1629159814    -0.2116895311
   11      H      -1.1160593450     0.2369084801     1.2590123772
 ----------------------------------------------------------------

    7    -119.0960652243      4.49E-06 Convergence criterion met
    6    -119.1393073845      4.12E-06 Convergence criterion met
 Total energy in the final basis set = -119.13930738

                    Orbital Energies (a.u.)
 --------------------------------------------------------------

 Alpha MOs
 -- Occupied --
-10.2737 -10.2658 -10.2658  -0.8831  -0.7765  -0.6783  -0.5477  -0.5302
 -0.4765  -0.4612  -0.4276  -0.4190  -0.3978

                    Cartesian Multipole Moments
 -----------------------------------------------------------------
    Charge (ESU x 10^10)
                -0.0000
    Dipole Moment (Debye)
         X      -0.0000      Y      -0.0255      Z      -0.0922
       Tot       0.0957
    Quadrupole Moments (Debye-Ang)
        XX     -21.8998     XY       0.0000     YY     -21.4643
        XZ      -0.0000     YZ      -0.4089     ZZ     -22.0212

 Total job time:  26.34s(wall), 71.91s(cpu)
        *  Thank you very much for using Q-Chem.  Have a nice day.  *
