 Q-Chem 5.3 (devel), Q-Chem, Inc., Pleasanton, CA (2020)
 Q-Chem 5.3.0 for Intel X86 EM64T Linux

User input:
--------------------------------------------------------------
$rem
   JOBTYPE  sp
   EXCHANGE   omegaB97X-D
   BASIS   6-311+G(2df,2pd)
   max_scf_cycles   250
   geom_opt_max_cycles   1500
   basis2 6-31G*
   scf_algorithm rca_diis
   SYM_IGNORE  TRUE
   print_input   true
   geom_opt_dmax   80
   pop_mulliken false
   XC_GRID 000075000302
$end

$molecule
0 1
C       1.0191626106     -0.7529376209     0.2539519680
C       0.0000044084     0.0000157128     -0.5928626868
H       1.4355769049     -0.0648182179     0.9853783513
H       1.8534394003     -1.1592248565     -0.3303547196
H       0.5565168557     -1.5729655941     0.8040747881
C       -1.0191691273     0.7529264564     0.2539717569
H       -0.3942617054     -0.7819667738     -1.2461717610
H       0.3942819621     0.7820327531     -1.2461248511
H       -1.8535058665     1.1591297151     -0.3303055955
H       -0.5565506380     1.5730042135     0.8040434662
H       -1.4354948653     0.0648048782     0.9854443025
$end
--------------------------------------------------------------

             Standard Nuclear Orientation (Angstroms)
    I     Atom           X                Y                Z
 ----------------------------------------------------------------
    1      C       1.0191626106    -0.7529376209     0.2539519680
    2      C       0.0000044084     0.0000157128    -0.5928626868
    3      H       1.4355769049    -0.0648182179     0.9853783513
    4      H       1.8534394003    -1.1592248565    -0.3303547196
    5      H       0.5565168557    -1.5729655941     0.8040747881
    6      C      -1.0191691273     0.7529264564     0.2539717569
    7      H      -0.3942617054    -0.7819667738    -1.2461717610
    8      H       0.3942819621     0.7820327531    -1.2461248511
    9      H      -1.8535058665     1.1591297151    -0.3303055955
   10      H      -0.5565506380     1.5730042135     0.8040434662
   11      H      -1.4354948653     0.0648048782     0.9854443025
 ----------------------------------------------------------------

    7    -119.0972554046      4.62E-06 Convergence criterion met
    6    -119.1403552501      4.02E-06 Convergence criterion met
 Total energy in the final basis set = -119.14035525

                    Orbital Energies (a.u.)
 --------------------------------------------------------------

 Alpha MOs
 -- Occupied --
-10.2738 -10.2659 -10.2659  -0.8823  -0.7776  -0.6781  -0.5472  -0.5256
 -0.4818  -0.4654  -0.4279  -0.4142  -0.3977

                    Cartesian Multipole Moments
 -----------------------------------------------------------------
    Charge (ESU x 10^10)
                 0.0000
    Dipole Moment (Debye)
         X      -0.0000      Y       0.0000      Z      -0.0590
       Tot       0.0590
    Quadrupole Moments (Debye-Ang)
        XX     -22.1432     XY       0.1714     YY     -21.2611
        XZ       0.0000     YZ       0.0000     ZZ     -21.9892

 Total job time:  27.26s(wall), 73.98s(cpu)
        *  Thank you very much for using Q-Chem.  Have a nice day.  *
