 Q-Chem 5.2 (devel), Q-Chem, Inc., Pleasanton, CA (2019)
 Q-Chem 5.2.2 for Intel X86 EM64T Linux

User input:
--------------------------------------------------------------
$rem
   JOBTYPE  sp
   EXCHANGE   omegaB97X-D
   BASIS   6-311+G(2df,2pd)
   max_scf_cycles   250
   geom_opt_max_cycles   1500
   basis2 6-31G*
   scf_algorithm rca_diis
   SYM_IGNORE  TRUE
   print_input   true
   geom_opt_dmax   80
   pop_mulliken false
   XC_GRID 000075000302
$end

$molecule
0 1
C       1.2671298577     -0.0262153292     0.2572097933
C       -0.0000000125     0.0936621398     -0.5810813422
H       1.1557381833     -0.8243644124     0.9944680127
H       1.4800269025     0.8960254176     0.8008094486
H       2.1359722117     -0.2602401548     -0.3588011541
C       -1.2671297311     -0.0262167611     0.2572098981
H       0.0000004221     -0.7003366988     -1.3315108738
H       -0.0000007013     1.0362700174     -1.1337346839
H       -1.1557406589     -0.8243703113     0.9944635581
H       -2.1359729922     -0.2602348812     -0.3588023736
H       -1.4800235419     0.8960216401     0.8008147356
--------------------------------------------------------------

             Standard Nuclear Orientation (Angstroms)
    I     Atom           X                Y                Z
 ----------------------------------------------------------------
    1      C       1.2671298577    -0.0262153292     0.2572097933
    2      C      -0.0000000125     0.0936621398    -0.5810813422
    3      H       1.1557381833    -0.8243644124     0.9944680127
    4      H       1.4800269025     0.8960254176     0.8008094486
    5      H       2.1359722117    -0.2602401548    -0.3588011541
    6      C      -1.2671297311    -0.0262167611     0.2572098981
    7      H       0.0000004221    -0.7003366988    -1.3315108738
    8      H      -0.0000007013     1.0362700174    -1.1337346839
    9      H      -1.1557406589    -0.8243703113     0.9944635581
   10      H      -2.1359729922    -0.2602348812    -0.3588023736
   11      H      -1.4800235419     0.8960216401     0.8008147356
 ----------------------------------------------------------------

    7    -119.1007570910      4.42E-06 Convergence criterion met
    6    -119.1437777594      3.90E-06 Convergence criterion met
 Total energy in the final basis set = -119.14377776

                    Orbital Energies (a.u.)
 --------------------------------------------------------------

 Alpha MOs
 -- Occupied --
-10.2736 -10.2648 -10.2648  -0.8812  -0.7768  -0.6778  -0.5456  -0.5253
 -0.4814  -0.4639  -0.4189  -0.4179  -0.4053

                    Cartesian Multipole Moments
 -----------------------------------------------------------------
    Charge (ESU x 10^10)
                -0.0000
    Dipole Moment (Debye)
         X      -0.0000      Y       0.0059      Z      -0.0870
       Tot       0.0872
    Quadrupole Moments (Debye-Ang)
        XX     -22.2037     XY      -0.0000     YY     -21.3392
        XZ      -0.0000     YZ       0.0680     ZZ     -21.8422

 Total job time:  35.76s(wall), 99.95s(cpu)
        *  Thank you very much for using Q-Chem.  Have a nice day.  *
