 Q-Chem 5.2 (devel), Q-Chem, Inc., Pleasanton, CA (2019)
 Q-Chem 5.2.2 for Intel X86 EM64T Linux

User input:
--------------------------------------------------------------
$rem
   JOBTYPE  sp
   EXCHANGE   omegaB97X-D
   BASIS   6-311+G(2df,2pd)
   max_scf_cycles   250
   geom_opt_max_cycles   1500
   basis2 6-31G*
   scf_algorithm rca_diis
   SYM_IGNORE  TRUE
   print_input   true
   geom_opt_dmax   80
   pop_mulliken false
   XC_GRID 000075000302
$end

$molecule
0 1
C       1.2760458294     0.0000001216     0.1833910063
C       -0.0000000649     -0.0000001796     -0.5453014497
H       1.1609470816     -0.8435871370     0.8702573486
H       1.1609474274     0.8435873347     0.8702574399
H       2.2611162440     -0.0000001770     -0.2734273147
C       -1.2760457454     0.0000000959     0.1833908133
H       0.0000002119     -0.8677453872     -1.2073053239
H       -0.0000001573     0.8677452742     -1.2073050002
H       -1.1609471709     -0.8435871517     0.8702571872
H       -2.2611164209     0.0000006557     -0.2734270966
H       -1.1609472955     0.8435872162     0.8702574085
--------------------------------------------------------------

             Standard Nuclear Orientation (Angstroms)
    I     Atom           X                Y                Z
 ----------------------------------------------------------------
    1      C       1.2760458294     0.0000001216     0.1833910063
    2      C      -0.0000000649    -0.0000001796    -0.5453014497
    3      H       1.1609470816    -0.8435871370     0.8702573486
    4      H       1.1609474274     0.8435873347     0.8702574399
    5      H       2.2611162440    -0.0000001770    -0.2734273147
    6      C      -1.2760457454     0.0000000959     0.1833908133
    7      H       0.0000002119    -0.8677453872    -1.2073053239
    8      H      -0.0000001573     0.8677452742    -1.2073050002
    9      H      -1.1609471709    -0.8435871517     0.8702571872
   10      H      -2.2611164209     0.0000006557    -0.2734270966
   11      H      -1.1609472955     0.8435872162     0.8702574085
 ----------------------------------------------------------------

    7    -119.0757168121      4.52E-06 Convergence criterion met
    6    -119.1203211553      4.15E-06 Convergence criterion met
 Total energy in the final basis set = -119.12032116

                    Orbital Energies (a.u.)
 --------------------------------------------------------------

 Alpha MOs
 -- Occupied --
-10.2664 -10.2655 -10.2655  -0.9017  -0.7864  -0.6748  -0.5555  -0.5481
 -0.4777  -0.4657  -0.4526  -0.3942  -0.3889

                    Cartesian Multipole Moments
 -----------------------------------------------------------------
    Charge (ESU x 10^10)
                 0.0000
    Dipole Moment (Debye)
         X      -0.0000      Y       0.0000      Z      -0.0308
       Tot       0.0308
    Quadrupole Moments (Debye-Ang)
        XX     -21.0632     XY      -0.0000     YY     -21.8519
        XZ      -0.0000     YZ       0.0000     ZZ     -22.5528

 Total job time:  34.84s(wall), 97.44s(cpu)
        *  Thank you very much for using Q-Chem.  Have a nice day.  *
