 Q-Chem 5.3 (devel), Q-Chem, Inc., Pleasanton, CA (2020)
 Q-Chem 5.3.0 for Intel X86 EM64T Linux

User input:
--------------------------------------------------------------
$rem
   JOBTYPE  sp
   EXCHANGE   omegaB97X-D
   BASIS   6-311+G(2df,2pd)
   max_scf_cycles   250
   geom_opt_max_cycles   1500
   basis2 6-31G*
   scf_algorithm rca_diis
   SYM_IGNORE  TRUE
   print_input   true
   geom_opt_dmax   80
   pop_mulliken false
   XC_GRID 000075000302
$end

$molecule
0 1
C       1.2599819851     -0.2273756126     0.0544532605
C       -0.0000024678     0.6238729139     -0.0481757402
H       1.7448646264     0.1558923183     0.9591157235
H       1.9859795216     -0.1878870226     -0.7550699754
H       1.0174557742     -1.2743127055     0.2394555122
C       -1.2599827189     -0.2273832420     0.0544481348
H       -0.0000014331     0.8758301268     -1.1104803985
H       -0.0000067113     1.5677159530     0.5038214008
H       -1.7448393779     0.1558241397     0.9591493802
H       -1.0174444921     -1.2743307008     0.2393778358
H       -1.9860047669     -0.1878455021     -0.7550501149
$end
--------------------------------------------------------------

             Standard Nuclear Orientation (Angstroms)
    I     Atom           X                Y                Z
 ----------------------------------------------------------------
    1      C       1.2599819851    -0.2273756126     0.0544532605
    2      C      -0.0000024678     0.6238729139    -0.0481757402
    3      H       1.7448646264     0.1558923183     0.9591157235
    4      H       1.9859795216    -0.1878870226    -0.7550699754
    5      H       1.0174557742    -1.2743127055     0.2394555122
    6      C      -1.2599827189    -0.2273832420     0.0544481348
    7      H      -0.0000014331     0.8758301268    -1.1104803985
    8      H      -0.0000067113     1.5677159530     0.5038214008
    9      H      -1.7448393779     0.1558241397     0.9591493802
   10      H      -1.0174444921    -1.2743307008     0.2393778358
   11      H      -1.9860047669    -0.1878455021    -0.7550501149
 ----------------------------------------------------------------

    7    -119.0766506138      4.62E-06 Convergence criterion met
    6    -119.1205877919      4.14E-06 Convergence criterion met
 Total energy in the final basis set = -119.12058779

                    Orbital Energies (a.u.)
 --------------------------------------------------------------

 Alpha MOs
 -- Occupied --
-10.2719 -10.2637 -10.2637  -0.8837  -0.7762  -0.6781  -0.5462  -0.5298
 -0.4826  -0.4649  -0.4347  -0.4075  -0.3804

                    Cartesian Multipole Moments
 -----------------------------------------------------------------
    Charge (ESU x 10^10)
                -0.0000
    Dipole Moment (Debye)
         X       0.0000      Y       0.0931      Z      -0.0588
       Tot       0.1101
    Quadrupole Moments (Debye-Ang)
        XX     -22.4939     XY      -0.0000     YY     -21.5534
        XZ      -0.0000     YZ       0.5501     ZZ     -21.5137

 Total job time:  26.82s(wall), 73.18s(cpu)
        *  Thank you very much for using Q-Chem.  Have a nice day.  *
