 Q-Chem 5.3 (devel), Q-Chem, Inc., Pleasanton, CA (2020)
 Q-Chem 5.3.0 for Intel X86 EM64T Linux

User input:
--------------------------------------------------------------
$rem
   JOBTYPE  sp
   EXCHANGE   omegaB97X-D
   BASIS   6-311+G(2df,2pd)
   max_scf_cycles   250
   geom_opt_max_cycles   1500
   basis2 6-31G*
   scf_algorithm rca_diis
   SYM_IGNORE  TRUE
   print_input   true
   geom_opt_dmax   80
   pop_mulliken false
   XC_GRID 000075000302
$end

$molecule
0 1
C       1.2611424629     -0.1342076345     0.2566219675
C       -0.0000000193     0.0000001551     -0.5884986826
H       1.3412903070     -0.9363453520     0.9918825599
H       1.2671929848     0.8174248516     0.7935149900
H       2.1546262026     -0.0497871322     -0.3627990294
C       -1.2611426050     0.1342074301     0.2566219107
H       0.4092056617     -0.7965513739     -1.2144484315
H       -0.4092060795     0.7965515038     -1.2144484447
H       -1.2671927148     -0.8174248912     0.7935152155
H       -2.1546261486     0.0497877880     -0.3627994360
H       -1.3412901126     0.9363453212     0.9918823996
$end
--------------------------------------------------------------

             Standard Nuclear Orientation (Angstroms)
    I     Atom           X                Y                Z
 ----------------------------------------------------------------
    1      C       1.2611424629    -0.1342076345     0.2566219675
    2      C      -0.0000000193     0.0000001551    -0.5884986826
    3      H       1.3412903070    -0.9363453520     0.9918825599
    4      H       1.2671929848     0.8174248516     0.7935149900
    5      H       2.1546262026    -0.0497871322    -0.3627990294
    6      C      -1.2611426050     0.1342074301     0.2566219107
    7      H       0.4092056617    -0.7965513739    -1.2144484315
    8      H      -0.4092060795     0.7965515038    -1.2144484447
    9      H      -1.2671927148    -0.8174248912     0.7935152155
   10      H      -2.1546261486     0.0497877880    -0.3627994360
   11      H      -1.3412901126     0.9363453212     0.9918823996
 ----------------------------------------------------------------

    7    -119.0270268361      7.47E-06 Convergence criterion met
    6    -119.0727561293      4.78E-06 Convergence criterion met
 Total energy in the final basis set = -119.07275613

                    Orbital Energies (a.u.)
 --------------------------------------------------------------

 Alpha MOs
 -- Occupied --
-10.2726 -10.2698 -10.2698  -0.8900  -0.7872  -0.6771  -0.5549  -0.5291
 -0.5106  -0.4751  -0.4346  -0.3985  -0.3430

                    Cartesian Multipole Moments
 -----------------------------------------------------------------
    Charge (ESU x 10^10)
                -0.0000
    Dipole Moment (Debye)
         X       0.0000      Y       0.0000      Z       0.0360
       Tot       0.0360
    Quadrupole Moments (Debye-Ang)
        XX     -21.7701     XY      -1.1207     YY     -21.7784
        XZ       0.0000     YZ      -0.0000     ZZ     -22.2280

 Total job time:  27.14s(wall), 73.63s(cpu)
        *  Thank you very much for using Q-Chem.  Have a nice day.  *
