 Q-Chem 5.3 (devel), Q-Chem, Inc., Pleasanton, CA (2020)
 Q-Chem 5.3.0 for Intel X86 EM64T Linux

User input:
--------------------------------------------------------------
$rem
   JOBTYPE  sp
   EXCHANGE   omegaB97X-D
   BASIS   6-311+G(2df,2pd)
   max_scf_cycles   250
   geom_opt_max_cycles   1500
   basis2 6-31G*
   scf_algorithm rca_diis
   SYM_IGNORE  TRUE
   print_input   true
   geom_opt_dmax   80
   pop_mulliken false
   XC_GRID 000075000302
$end

$molecule
0 1
C       1.2473156268     0.2340797860     -0.1211181407
C       -0.0000031249     -0.3136320007     0.5622074405
H       1.2306047344     0.9206536206     -0.9616907402
H       1.6599272555     -0.7243280040     -0.4637744563
H       1.9516879359     0.6241689994     0.6142817313
C       -1.2473117143     0.2340831056     -0.1211323519
H       -0.0000088375     -0.5401637264     1.6324757906
H       -0.0000009429     -1.2553918523     0.0110127281
H       -1.2305720249     0.9205726133     -0.9617746350
H       -1.9516429298     0.6242889316     0.6142442098
H       -1.6599960390     -0.7243308070     -0.4636865573
$end
--------------------------------------------------------------

             Standard Nuclear Orientation (Angstroms)
    I     Atom           X                Y                Z
 ----------------------------------------------------------------
    1      C       1.2473156268     0.2340797860    -0.1211181407
    2      C      -0.0000031249    -0.3136320007     0.5622074405
    3      H       1.2306047344     0.9206536206    -0.9616907402
    4      H       1.6599272555    -0.7243280040    -0.4637744563
    5      H       1.9516879359     0.6241689994     0.6142817313
    6      C      -1.2473117143     0.2340831056    -0.1211323519
    7      H      -0.0000088375    -0.5401637264     1.6324757906
    8      H      -0.0000009429    -1.2553918523     0.0110127281
    9      H      -1.2305720249     0.9205726133    -0.9617746350
   10      H      -1.9516429298     0.6242889316     0.6142442098
   11      H      -1.6599960390    -0.7243308070    -0.4636865573
 ----------------------------------------------------------------

    7    -119.0467776886      6.48E-06 Convergence criterion met
    5    -119.0919947930      9.32E-06 Convergence criterion met
 Total energy in the final basis set = -119.09199479

                    Orbital Energies (a.u.)
 --------------------------------------------------------------

 Alpha MOs
 -- Occupied --
-10.2738 -10.2620 -10.2620  -0.8888  -0.7783  -0.6745  -0.5539  -0.5123
 -0.4998  -0.4650  -0.4488  -0.3835  -0.3695

                    Cartesian Multipole Moments
 -----------------------------------------------------------------
    Charge (ESU x 10^10)
                -0.0000
    Dipole Moment (Debye)
         X      -0.0000      Y      -0.2087      Z       0.0095
       Tot       0.2089
    Quadrupole Moments (Debye-Ang)
        XX     -23.3213     XY       0.0000     YY     -21.5554
        XZ       0.0000     YZ      -0.3283     ZZ     -20.8911

 Total job time:  25.52s(wall), 68.36s(cpu)
        *  Thank you very much for using Q-Chem.  Have a nice day.  *
