 Q-Chem 5.3 (devel), Q-Chem, Inc., Pleasanton, CA (2020)
 Q-Chem 5.3.0 for Intel X86 EM64T Linux

User input:
--------------------------------------------------------------
$rem
   JOBTYPE  sp
   EXCHANGE   omegaB97X-D
   BASIS   6-311+G(2df,2pd)
   max_scf_cycles   250
   geom_opt_max_cycles   1500
   basis2 6-31G*
   scf_algorithm rca_diis
   SYM_IGNORE  TRUE
   print_input   true
   geom_opt_dmax   80
   pop_mulliken false
   XC_GRID 000075000302
$end

$molecule
0 1
C       1.2514719603     0.2471785487     -0.0858948141
C       -0.0000035273     -0.4648265194     0.4136883866
H       1.3035206843     0.7274847398     -1.0587560610
H       1.9485500576     -0.6005418105     -0.0837855848
H       1.6209637633     0.9544542725     0.6573142491
C       -1.2514701084     0.2471843956     -0.0859067671
H       -0.0000087296     -0.9317670297     1.4028296055
H       -0.0000015896     -1.2606082223     -0.3331816944
H       -1.3035254806     0.7274031204     -1.0588118913
H       -1.6209087102     0.9545427684     0.6572493832
H       -1.9485883805     -0.6005035974     -0.0836997930
$end
--------------------------------------------------------------

             Standard Nuclear Orientation (Angstroms)
    I     Atom           X                Y                Z
 ----------------------------------------------------------------
    1      C       1.2514719603     0.2471785487    -0.0858948141
    2      C      -0.0000035273    -0.4648265194     0.4136883866
    3      H       1.3035206843     0.7274847398    -1.0587560610
    4      H       1.9485500576    -0.6005418105    -0.0837855848
    5      H       1.6209637633     0.9544542725     0.6573142491
    6      C      -1.2514701084     0.2471843956    -0.0859067671
    7      H      -0.0000087296    -0.9317670297     1.4028296055
    8      H      -0.0000015896    -1.2606082223    -0.3331816944
    9      H      -1.3035254806     0.7274031204    -1.0588118913
   10      H      -1.6209087102     0.9545427684     0.6572493832
   11      H      -1.9485883805    -0.6005035974    -0.0836997930
 ----------------------------------------------------------------

    7    -119.0670279255      6.62E-06 Convergence criterion met
    5    -119.1110761827      9.06E-06 Convergence criterion met
 Total energy in the final basis set = -119.11107618

                    Orbital Energies (a.u.)
 --------------------------------------------------------------

 Alpha MOs
 -- Occupied --
-10.2762 -10.2625 -10.2625  -0.8858  -0.7785  -0.6761  -0.5478  -0.5118
 -0.5015  -0.4652  -0.4517  -0.3826  -0.3813

                    Cartesian Multipole Moments
 -----------------------------------------------------------------
    Charge (ESU x 10^10)
                -0.0000
    Dipole Moment (Debye)
         X      -0.0000      Y      -0.2099      Z      -0.0254
       Tot       0.2114
    Quadrupole Moments (Debye-Ang)
        XX     -23.2999     XY       0.0000     YY     -21.6447
        XZ      -0.0000     YZ      -0.5760     ZZ     -20.7662

 Total job time:  24.72s(wall), 66.77s(cpu)
        *  Thank you very much for using Q-Chem.  Have a nice day.  *
