 Q-Chem 5.2 (devel), Q-Chem, Inc., Pleasanton, CA (2019)
 Q-Chem 5.2.2 for Intel X86 EM64T Linux

User input:
--------------------------------------------------------------
$rem
   JOBTYPE  sp
   EXCHANGE   omegaB97X-D
   BASIS   6-311+G(2df,2pd)
   max_scf_cycles   250
   geom_opt_max_cycles   1500
   basis2 6-31G*
   scf_algorithm rca_diis
   SYM_IGNORE  TRUE
   print_input   true
   geom_opt_dmax   80
   pop_mulliken false
   XC_GRID 000075000302
$end

$molecule
0 1
C       1.2552224818     0.2485461531     -0.0376642109
C       -0.0000035110     -0.5713016008     0.2361792820
H       1.5374986975     0.5216550946     -1.0512042717
H       2.0274018252     -0.4201248804     0.3617613613
H       1.2752838444     1.1523023057     0.5722367992
C       -1.2552215093     0.2485541245     -0.0376737894
H       -0.0000084001     -1.2578966418     1.0874559405
H       -0.0000017915     -1.1756145745     -0.6728054485
H       -1.5375246498     0.5215859467     -1.0512280034
H       -1.2752414973     1.1523592502     0.5721552610
H       -2.0274055506     -0.4200645112     0.3618320988
--------------------------------------------------------------

             Standard Nuclear Orientation (Angstroms)
    I     Atom           X                Y                Z
 ----------------------------------------------------------------
    1      C       1.2552224818     0.2485461531    -0.0376642109
    2      C      -0.0000035110    -0.5713016008     0.2361792820
    3      H       1.5374986975     0.5216550946    -1.0512042717
    4      H       2.0274018252    -0.4201248804     0.3617613613
    5      H       1.2752838444     1.1523023057     0.5722367992
    6      C      -1.2552215093     0.2485541245    -0.0376737894
    7      H      -0.0000084001    -1.2578966418     1.0874559405
    8      H      -0.0000017915    -1.1756145745    -0.6728054485
    9      H      -1.5375246498     0.5215859467    -1.0512280034
   10      H      -1.2752414973     1.1523592502     0.5721552610
   11      H      -2.0274055506    -0.4200645112     0.3618320988
 ----------------------------------------------------------------

    7    -119.0762443393      5.79E-06 Convergence criterion met
    5    -119.1200042016      9.23E-06 Convergence criterion met
 Total energy in the final basis set = -119.12000420

                    Orbital Energies (a.u.)
 --------------------------------------------------------------

 Alpha MOs
 -- Occupied --
-10.2756 -10.2633 -10.2633  -0.8844  -0.7782  -0.6768  -0.5473  -0.5186
 -0.4986  -0.4639  -0.4404  -0.3908  -0.3877

                    Cartesian Multipole Moments
 -----------------------------------------------------------------
    Charge (ESU x 10^10)
                -0.0000
    Dipole Moment (Debye)
         X       0.0000      Y      -0.2129      Z      -0.0631
       Tot       0.2221
    Quadrupole Moments (Debye-Ang)
        XX     -22.8932     XY       0.0000     YY     -21.6802
        XZ      -0.0000     YZ      -0.5731     ZZ     -21.0377

 Total job time:  37.59s(wall), 102.73s(cpu)
        *  Thank you very much for using Q-Chem.  Have a nice day.  *
