 Q-Chem 5.3 (devel), Q-Chem, Inc., Pleasanton, CA (2020)
 Q-Chem 5.3.0 for Intel X86 EM64T Linux

User input:
--------------------------------------------------------------
$rem
   JOBTYPE  sp
   EXCHANGE   omegaB97X-D
   BASIS   6-311+G(2df,2pd)
   max_scf_cycles   250
   geom_opt_max_cycles   1500
   basis2 6-31G*
   scf_algorithm rca_diis
   SYM_IGNORE  TRUE
   print_input   true
   geom_opt_dmax   80
   pop_mulliken false
   XC_GRID 000075000302
$end

$molecule
0 1
C       0.8571890879     -0.9331404335     0.2528385661
C       0.0000079532     0.0000185834     -0.5940208561
H       0.3565475023     -1.0679158398     1.2067282538
H       1.8657252945     -0.5508504889     0.4588099078
H       0.9504955722     -1.9182352257     -0.2054235283
C       -0.8571991284     0.9331228155     0.2528731594
H       -0.4998024421     -0.7207300263     -1.2455311387
H       0.4998382163     0.7208116071     -1.2454685399
H       -1.8656819598     0.5507472605     0.4589390407
H       -0.9506239711     1.9181935201     -0.2054168717
H       -0.3564961855     1.0679788935     1.2067170258
$end
--------------------------------------------------------------

             Standard Nuclear Orientation (Angstroms)
    I     Atom           X                Y                Z
 ----------------------------------------------------------------
    1      C       0.8571890879    -0.9331404335     0.2528385661
    2      C       0.0000079532     0.0000185834    -0.5940208561
    3      H       0.3565475023    -1.0679158398     1.2067282538
    4      H       1.8657252945    -0.5508504889     0.4588099078
    5      H       0.9504955722    -1.9182352257    -0.2054235283
    6      C      -0.8571991284     0.9331228155     0.2528731594
    7      H      -0.4998024421    -0.7207300263    -1.2455311387
    8      H       0.4998382163     0.7208116071    -1.2454685399
    9      H      -1.8656819598     0.5507472605     0.4589390407
   10      H      -0.9506239711     1.9181935201    -0.2054168717
   11      H      -0.3564961855     1.0679788935     1.2067170258
 ----------------------------------------------------------------

    7    -119.0872328801      4.58E-06 Convergence criterion met
    6    -119.1308210548      4.13E-06 Convergence criterion met
 Total energy in the final basis set = -119.13082105

                    Orbital Energies (a.u.)
 --------------------------------------------------------------

 Alpha MOs
 -- Occupied --
-10.2722 -10.2651 -10.2651  -0.8829  -0.7777  -0.6781  -0.5462  -0.5300
 -0.4776  -0.4693  -0.4229  -0.4146  -0.3934

                    Cartesian Multipole Moments
 -----------------------------------------------------------------
    Charge (ESU x 10^10)
                -0.0000
    Dipole Moment (Debye)
         X       0.0000      Y       0.0000      Z      -0.0432
       Tot       0.0432
    Quadrupole Moments (Debye-Ang)
        XX     -22.1173     XY       0.4519     YY     -21.3815
        XZ      -0.0000     YZ       0.0000     ZZ     -21.9848

 Total job time:  27.10s(wall), 73.53s(cpu)
        *  Thank you very much for using Q-Chem.  Have a nice day.  *
