 Q-Chem 5.3 (devel), Q-Chem, Inc., Pleasanton, CA (2020)
 Q-Chem 5.3.0 for Intel X86 EM64T Linux

User input:
--------------------------------------------------------------
$rem
   JOBTYPE  sp
   EXCHANGE   omegaB97X-D
   BASIS   6-311+G(2df,2pd)
   max_scf_cycles   250
   geom_opt_max_cycles   1500
   basis2 6-31G*
   scf_algorithm rca_diis
   SYM_IGNORE  TRUE
   print_input   true
   geom_opt_dmax   80
   pop_mulliken false
   XC_GRID 000075000302
$end

$molecule
0 1
C       0.8766163344     -0.9149184933     0.2519001494
C       0.0000074280     0.0000182222     -0.5949551410
H       0.4612754924     -0.9384089215     1.2548983790
H       1.9200727150     -0.5832688425     0.3329253180
H       0.8701950042     -1.9381097405     -0.1251415527
C       -0.8766262250     0.9149015238     0.2519327173
H       -0.4886714000     -0.7281239761     -1.2466887017
H       0.4887051658     0.7282037338     -1.2466278613
H       -1.9200449674     0.5831608868     0.3330505814
H       -0.8703170060     1.9380799906     -0.1251458811
H       -0.4612126020     0.9384662826     1.2548970116
$end
--------------------------------------------------------------

             Standard Nuclear Orientation (Angstroms)
    I     Atom           X                Y                Z
 ----------------------------------------------------------------
    1      C       0.8766163344    -0.9149184933     0.2519001494
    2      C       0.0000074280     0.0000182222    -0.5949551410
    3      H       0.4612754924    -0.9384089215     1.2548983790
    4      H       1.9200727150    -0.5832688425     0.3329253180
    5      H       0.8701950042    -1.9381097405    -0.1251415527
    6      C      -0.8766262250     0.9149015238     0.2519327173
    7      H      -0.4886714000    -0.7281239761    -1.2466887017
    8      H       0.4887051658     0.7282037338    -1.2466278613
    9      H      -1.9200449674     0.5831608868     0.3330505814
   10      H      -0.8703170060     1.9380799906    -0.1251458811
   11      H      -0.4612126020     0.9384662826     1.2548970116
 ----------------------------------------------------------------

    7    -119.0849500278      4.45E-06 Convergence criterion met
    6    -119.1286708695      4.15E-06 Convergence criterion met
 Total energy in the final basis set = -119.12867087

                    Orbital Energies (a.u.)
 --------------------------------------------------------------

 Alpha MOs
 -- Occupied --
-10.2717 -10.2646 -10.2646  -0.8830  -0.7773  -0.6784  -0.5459  -0.5314
 -0.4748  -0.4706  -0.4217  -0.4157  -0.3921

                    Cartesian Multipole Moments
 -----------------------------------------------------------------
    Charge (ESU x 10^10)
                -0.0000
    Dipole Moment (Debye)
         X       0.0000      Y       0.0000      Z      -0.0461
       Tot       0.0461
    Quadrupole Moments (Debye-Ang)
        XX     -22.1092     XY       0.4806     YY     -21.3832
        XZ      -0.0000     YZ       0.0000     ZZ     -22.0042

 Total job time:  27.94s(wall), 75.32s(cpu)
        *  Thank you very much for using Q-Chem.  Have a nice day.  *
