 Q-Chem 5.3 (devel), Q-Chem, Inc., Pleasanton, CA (2020)
 Q-Chem 5.3.0 for Intel X86 EM64T Linux

User input:
--------------------------------------------------------------
$rem
   JOBTYPE  sp
   EXCHANGE   omegaB97X-D
   BASIS   6-311+G(2df,2pd)
   max_scf_cycles   250
   geom_opt_max_cycles   1500
   basis2 6-31G*
   scf_algorithm rca_diis
   SYM_IGNORE  TRUE
   print_input   true
   geom_opt_dmax   80
   pop_mulliken false
   XC_GRID 000075000302
$end

$molecule
0 1
C       1.2653647254     -0.1298136499     0.2025631521
C       -0.0000006502     0.4273439034     -0.4386428165
H       1.0206341759     -0.3615042262     1.2431016555
H       2.1149032467     0.5530620700     0.2079471814
H       1.5815874107     -1.0575917486     -0.2753000519
C       -1.2653639082     -0.1298198524     0.2025624676
H       0.0000004142     0.0466814018     -1.4623425045
H       -0.0000034968     1.5177022834     -0.5145838821
H       -1.0206270242     -0.3615454261     1.2430913362
H       -1.5816009875     -1.0575799120     -0.2753265965
H       -2.1148939667     0.5530658226     0.2079750775
$end
--------------------------------------------------------------

             Standard Nuclear Orientation (Angstroms)
    I     Atom           X                Y                Z
 ----------------------------------------------------------------
    1      C       1.2653647254    -0.1298136499     0.2025631521
    2      C      -0.0000006502     0.4273439034    -0.4386428165
    3      H       1.0206341759    -0.3615042262     1.2431016555
    4      H       2.1149032467     0.5530620700     0.2079471814
    5      H       1.5815874107    -1.0575917486    -0.2753000519
    6      C      -1.2653639082    -0.1298198524     0.2025624676
    7      H       0.0000004142     0.0466814018    -1.4623425045
    8      H      -0.0000034968     1.5177022834    -0.5145838821
    9      H      -1.0206270242    -0.3615454261     1.2430913362
   10      H      -1.5816009875    -1.0575799120    -0.2753265965
   11      H      -2.1148939667     0.5530658226     0.2079750775
 ----------------------------------------------------------------

    7    -119.0924510110      4.27E-06 Convergence criterion met
    6    -119.1358994195      4.11E-06 Convergence criterion met
 Total energy in the final basis set = -119.13589942

                    Orbital Energies (a.u.)
 --------------------------------------------------------------

 Alpha MOs
 -- Occupied --
-10.2725 -10.2647 -10.2647  -0.8828  -0.7760  -0.6785  -0.5463  -0.5319
 -0.4744  -0.4641  -0.4228  -0.4168  -0.3998

                    Cartesian Multipole Moments
 -----------------------------------------------------------------
    Charge (ESU x 10^10)
                 0.0000
    Dipole Moment (Debye)
         X      -0.0000      Y       0.0219      Z      -0.0951
       Tot       0.0976
    Quadrupole Moments (Debye-Ang)
        XX     -22.0526     XY      -0.0000     YY     -21.4202
        XZ      -0.0000     YZ       0.3877     ZZ     -21.9411

 Total job time:  26.52s(wall), 72.33s(cpu)
        *  Thank you very much for using Q-Chem.  Have a nice day.  *
