 Q-Chem 5.3 (devel), Q-Chem, Inc., Pleasanton, CA (2020)
 Q-Chem 5.3.0 for Intel X86 EM64T Linux

User input:
--------------------------------------------------------------
$rem
   JOBTYPE  sp
   EXCHANGE   omegaB97X-D
   BASIS   6-311+G(2df,2pd)
   max_scf_cycles   250
   geom_opt_max_cycles   1500
   basis2 6-31G*
   scf_algorithm rca_diis
   SYM_IGNORE  TRUE
   print_input   true
   geom_opt_dmax   80
   pop_mulliken false
   XC_GRID 000075000302
$end

$molecule
0 1
C       1.1510575177     -0.0000005374     0.4085465675
C       -0.0672732508     -0.0000000341     -0.5930417062
H       1.4195757657     -0.8890483600     0.9787288782
H       1.4195747228     0.8890481971     0.9787279872
H       1.7948260842     0.0000001118     -0.4772799114
C       -1.3690938117     0.0000001080     0.0916790396
H       0.1806058992     -0.8627138281     -1.2159683316
H       0.1806071681     0.8627138355     -1.2159676279
H       -1.1442274832     -0.8192281080     0.7809131511
H       -2.4214235248     0.0000006656     -0.1762064241
H       -1.1442291476     0.8192286156     0.7809133966
$end
--------------------------------------------------------------

             Standard Nuclear Orientation (Angstroms)
    I     Atom           X                Y                Z
 ----------------------------------------------------------------
    1      C       1.1510575177    -0.0000005374     0.4085465675
    2      C      -0.0672732508    -0.0000000341    -0.5930417062
    3      H       1.4195757657    -0.8890483600     0.9787288782
    4      H       1.4195747228     0.8890481971     0.9787279872
    5      H       1.7948260842     0.0000001118    -0.4772799114
    6      C      -1.3690938117     0.0000001080     0.0916790396
    7      H       0.1806058992    -0.8627138281    -1.2159683316
    8      H       0.1806071681     0.8627138355    -1.2159676279
    9      H      -1.1442274832    -0.8192281080     0.7809131511
   10      H      -2.4214235248     0.0000006656    -0.1762064241
   11      H      -1.1442291476     0.8192286156     0.7809133966
 ----------------------------------------------------------------

    7    -119.0482640587      5.24E-06 Convergence criterion met
    6    -119.0932521433      4.62E-06 Convergence criterion met
 Total energy in the final basis set = -119.09325214

                    Orbital Energies (a.u.)
 --------------------------------------------------------------

 Alpha MOs
 -- Occupied --
-10.2852 -10.2687 -10.2619  -0.8947  -0.7843  -0.6799  -0.5486  -0.5422
 -0.4904  -0.4605  -0.4124  -0.3991  -0.3982

                    Cartesian Multipole Moments
 -----------------------------------------------------------------
    Charge (ESU x 10^10)
                -0.0000
    Dipole Moment (Debye)
         X       0.1315      Y       0.0000      Z      -0.0718
       Tot       0.1498
    Quadrupole Moments (Debye-Ang)
        XX     -21.9553     XY      -0.0000     YY     -21.6647
        XZ       0.0947     YZ      -0.0000     ZZ     -22.0709

 Total job time:  26.27s(wall), 72.50s(cpu)
        *  Thank you very much for using Q-Chem.  Have a nice day.  *
