 Q-Chem 5.3 (devel), Q-Chem, Inc., Pleasanton, CA (2020)
 Q-Chem 5.3.0 for Intel X86 EM64T Linux

User input:
--------------------------------------------------------------
$rem
   JOBTYPE  sp
   EXCHANGE   omegaB97X-D
   BASIS   6-311+G(2df,2pd)
   max_scf_cycles   250
   geom_opt_max_cycles   1500
   basis2 6-31G*
   scf_algorithm rca_diis
   SYM_IGNORE  TRUE
   print_input   true
   geom_opt_dmax   80
   pop_mulliken false
   XC_GRID 000075000302
$end

$molecule
0 1
C       1.0663975536     -0.6844231802     0.2577376471
C       0.0000036486     0.0000147274     -0.5890600725
H       1.7422378606     0.0731177204     0.6480284918
H       1.6684064095     -1.4039277443     -0.3091217951
H       0.6292656309     -1.2036808636     1.1112066036
C       -1.0664023486     0.6844139076     0.2577540564
H       -0.3559455326     -0.7997336315     -1.2428628174
H       0.3559617165     0.7997944817     -1.2428207881
H       -1.6684840333     1.4038565219     -0.3091047029
H       -0.6292663841     1.2037259381     1.1111879754
H       -1.7421745815     -0.0731572115     0.6481004207
$end
--------------------------------------------------------------

             Standard Nuclear Orientation (Angstroms)
    I     Atom           X                Y                Z
 ----------------------------------------------------------------
    1      C       1.0663975536    -0.6844231802     0.2577376471
    2      C       0.0000036486     0.0000147274    -0.5890600725
    3      H       1.7422378606     0.0731177204     0.6480284918
    4      H       1.6684064095    -1.4039277443    -0.3091217951
    5      H       0.6292656309    -1.2036808636     1.1112066036
    6      C      -1.0664023486     0.6844139076     0.2577540564
    7      H      -0.3559455326    -0.7997336315    -1.2428628174
    8      H       0.3559617165     0.7997944817    -1.2428207881
    9      H      -1.6684840333     1.4038565219    -0.3091047029
   10      H      -0.6292663841     1.2037259381     1.1111879754
   11      H      -1.7421745815    -0.0731572115     0.6481004207
 ----------------------------------------------------------------

    7    -119.0961577870      4.60E-06 Convergence criterion met
    6    -119.1393343426      4.00E-06 Convergence criterion met
 Total energy in the final basis set = -119.13933434

                    Orbital Energies (a.u.)
 --------------------------------------------------------------

 Alpha MOs
 -- Occupied --
-10.2733 -10.2655 -10.2655  -0.8819  -0.7775  -0.6778  -0.5464  -0.5254
 -0.4830  -0.4657  -0.4250  -0.4163  -0.3961

                    Cartesian Multipole Moments
 -----------------------------------------------------------------
    Charge (ESU x 10^10)
                -0.0000
    Dipole Moment (Debye)
         X       0.0000      Y       0.0000      Z      -0.0566
       Tot       0.0566
    Quadrupole Moments (Debye-Ang)
        XX     -22.2596     XY       0.1500     YY     -21.2610
        XZ       0.0000     YZ       0.0000     ZZ     -21.8940

 Total job time:  27.01s(wall), 73.04s(cpu)
        *  Thank you very much for using Q-Chem.  Have a nice day.  *
