 Q-Chem 5.3 (devel), Q-Chem, Inc., Pleasanton, CA (2020)
 Q-Chem 5.3.0 for Intel X86 EM64T Linux

User input:
--------------------------------------------------------------
$rem
   JOBTYPE  sp
   EXCHANGE   omegaB97X-D
   BASIS   6-311+G(2df,2pd)
   max_scf_cycles   250
   geom_opt_max_cycles   1500
   basis2 6-31G*
   scf_algorithm rca_diis
   SYM_IGNORE  TRUE
   print_input   true
   geom_opt_dmax   80
   pop_mulliken false
   XC_GRID 000075000302
$end

$molecule
0 1
C       0.9684046851     0.8171889132     0.2513722566
C       0.0000063334     -0.0000182514     -0.5954463299
H       1.9711099694     0.9000256653     -0.1859976177
H       1.0711758987     0.3294280236     1.2169602295
H       0.5908009608     1.8237552363     0.4340259634
C       -0.9684112030     -0.8171753343     0.2513982318
H       0.4309529843     -0.7629175632     -1.2481545687
H       -0.4309234663     0.7628417547     -1.2482101345
H       -1.0710841677     -0.3294353078     1.2170085638
H       -0.5908819253     -1.8237778911     0.4340055661
H       -1.9711501301     -0.8999145793     -0.1859171416
$end
--------------------------------------------------------------

             Standard Nuclear Orientation (Angstroms)
    I     Atom           X                Y                Z
 ----------------------------------------------------------------
    1      C       0.9684046851     0.8171889132     0.2513722566
    2      C       0.0000063334    -0.0000182514    -0.5954463299
    3      H       1.9711099694     0.9000256653    -0.1859976177
    4      H       1.0711758987     0.3294280236     1.2169602295
    5      H       0.5908009608     1.8237552363     0.4340259634
    6      C      -0.9684112030    -0.8171753343     0.2513982318
    7      H       0.4309529843    -0.7629175632    -1.2481545687
    8      H      -0.4309234663     0.7628417547    -1.2482101345
    9      H      -1.0710841677    -0.3294353078     1.2170085638
   10      H      -0.5908819253    -1.8237778911     0.4340055661
   11      H      -1.9711501301    -0.8999145793    -0.1859171416
 ----------------------------------------------------------------

    7    -119.0904741438      4.51E-06 Convergence criterion met
    6    -119.1338403081      4.12E-06 Convergence criterion met
 Total energy in the final basis set = -119.13384031

                    Orbital Energies (a.u.)
 --------------------------------------------------------------

 Alpha MOs
 -- Occupied --
-10.2724 -10.2652 -10.2652  -0.8826  -0.7771  -0.6783  -0.5460  -0.5288
 -0.4766  -0.4706  -0.4245  -0.4149  -0.3937

                    Cartesian Multipole Moments
 -----------------------------------------------------------------
    Charge (ESU x 10^10)
                -0.0000
    Dipole Moment (Debye)
         X       0.0000      Y       0.0000      Z      -0.0558
       Tot       0.0558
    Quadrupole Moments (Debye-Ang)
        XX     -22.0906     XY      -0.3278     YY     -21.2535
        XZ       0.0000     YZ      -0.0000     ZZ     -22.0844

 Total job time:  27.52s(wall), 74.74s(cpu)
        *  Thank you very much for using Q-Chem.  Have a nice day.  *
