 Q-Chem 5.3 (devel), Q-Chem, Inc., Pleasanton, CA (2020)
 Q-Chem 5.3.0 for Intel X86 EM64T Linux

User input:
--------------------------------------------------------------
$rem
   JOBTYPE  sp
   EXCHANGE   omegaB97X-D
   BASIS   6-311+G(2df,2pd)
   max_scf_cycles   250
   geom_opt_max_cycles   1500
   basis2 6-31G*
   scf_algorithm rca_diis
   SYM_IGNORE  TRUE
   print_input   true
   geom_opt_dmax   80
   pop_mulliken false
   XC_GRID 000075000302
$end

$molecule
0 1
C       1.2619600057     0.2053496460     0.1037351166
C       -0.0000020073     -0.5996106186     -0.1829952156
H       2.1463611730     -0.0142488770     -0.4919166754
H       1.4970682692     -0.0254011043     1.1480814188
H       1.0724345740     1.2775660932     0.0441142174
C       -1.2619587167     0.2053589593     0.1037303138
H       -0.0000061338     -1.6275569695     0.1892945185
H       -0.0000001004     -0.6594127596     -1.2732544431
H       -2.1463723206     -0.0142790437     -0.4918894228
H       -1.0724434179     1.2775736485     0.0440505688
H       -1.4970413859     -0.0253383084     1.1480946221
$end
--------------------------------------------------------------

             Standard Nuclear Orientation (Angstroms)
    I     Atom           X                Y                Z
 ----------------------------------------------------------------
    1      C       1.2619600057     0.2053496460     0.1037351166
    2      C      -0.0000020073    -0.5996106186    -0.1829952156
    3      H       2.1463611730    -0.0142488770    -0.4919166754
    4      H       1.4970682692    -0.0254011043     1.1480814188
    5      H       1.0724345740     1.2775660932     0.0441142174
    6      C      -1.2619587167     0.2053589593     0.1037303138
    7      H      -0.0000061338    -1.6275569695     0.1892945185
    8      H      -0.0000001004    -0.6594127596    -1.2732544431
    9      H      -2.1463723206    -0.0142790437    -0.4918894228
   10      H      -1.0724434179     1.2775736485     0.0440505688
   11      H      -1.4970413859    -0.0253383084     1.1480946221
 ----------------------------------------------------------------

    7    -119.0874448707      4.73E-06 Convergence criterion met
    6    -119.1309684108      4.18E-06 Convergence criterion met
 Total energy in the final basis set = -119.13096841

                    Orbital Energies (a.u.)
 --------------------------------------------------------------

 Alpha MOs
 -- Occupied --
-10.2732 -10.2653 -10.2653  -0.8836  -0.7764  -0.6784  -0.5475  -0.5295
 -0.4758  -0.4670  -0.4324  -0.4190  -0.3835

                    Cartesian Multipole Moments
 -----------------------------------------------------------------
    Charge (ESU x 10^10)
                -0.0000
    Dipole Moment (Debye)
         X      -0.0000      Y      -0.0447      Z      -0.0654
       Tot       0.0792
    Quadrupole Moments (Debye-Ang)
        XX     -22.1382     XY       0.0000     YY     -21.4637
        XZ      -0.0000     YZ      -0.5254     ZZ     -21.8697

 Total job time:  27.06s(wall), 73.74s(cpu)
        *  Thank you very much for using Q-Chem.  Have a nice day.  *
