 Q-Chem 5.3 (devel), Q-Chem, Inc., Pleasanton, CA (2020)
 Q-Chem 5.3.0 for Intel X86 EM64T Linux

User input:
--------------------------------------------------------------
$rem
   JOBTYPE  sp
   EXCHANGE   omegaB97X-D
   BASIS   6-311+G(2df,2pd)
   max_scf_cycles   250
   geom_opt_max_cycles   1500
   basis2 6-31G*
   scf_algorithm rca_diis
   SYM_IGNORE  TRUE
   print_input   true
   geom_opt_dmax   80
   pop_mulliken false
   XC_GRID 000075000302
$end

$molecule
0 1
C       1.2697377031     0.0000003489     0.2403691825
C       0.0000000056     0.0000007277     -0.6147624527
H       1.2945552677     -0.8509859158     0.9254997742
H       1.2945546286     0.8509861902     0.9255002622
H       2.1480279626     -0.0000014350     -0.4038554926
C       -1.2697377164     0.0000004579     0.2403692767
H       -0.0000000824     -0.9146941550     -1.2096094531
H       -0.0000001274     0.9146951793     -1.2096101274
H       -1.2945554421     -0.8509861652     0.9254994009
H       -2.1480280240     -0.0000011633     -0.4038553457
H       -1.2945542358     0.8509865965     0.9254999937
$end
--------------------------------------------------------------

             Standard Nuclear Orientation (Angstroms)
    I     Atom           X                Y                Z
 ----------------------------------------------------------------
    1      C       1.2697377031     0.0000003489     0.2403691825
    2      C       0.0000000056     0.0000007277    -0.6147624527
    3      H       1.2945552677    -0.8509859158     0.9254997742
    4      H       1.2945546286     0.8509861902     0.9255002622
    5      H       2.1480279626    -0.0000014350    -0.4038554926
    6      C      -1.2697377164     0.0000004579     0.2403692767
    7      H      -0.0000000824    -0.9146941550    -1.2096094531
    8      H      -0.0000001274     0.9146951793    -1.2096101274
    9      H      -1.2945554421    -0.8509861652     0.9254994009
   10      H      -2.1480280240    -0.0000011633    -0.4038553457
   11      H      -1.2945542358     0.8509865965     0.9254999937
 ----------------------------------------------------------------

    7    -119.0995940613      4.58E-06 Convergence criterion met
    5    -119.1426161411      9.44E-06 Convergence criterion met
 Total energy in the final basis set = -119.14261614

                    Orbital Energies (a.u.)
 --------------------------------------------------------------

 Alpha MOs
 -- Occupied --
-10.2755 -10.2647 -10.2647  -0.8807  -0.7762  -0.6767  -0.5476  -0.5229
 -0.4932  -0.4538  -0.4177  -0.4145  -0.4098

                    Cartesian Multipole Moments
 -----------------------------------------------------------------
    Charge (ESU x 10^10)
                -0.0000
    Dipole Moment (Debye)
         X      -0.0000      Y      -0.0000      Z      -0.0259
       Tot       0.0259
    Quadrupole Moments (Debye-Ang)
        XX     -22.4215     XY       0.0000     YY     -21.4863
        XZ       0.0000     YZ       0.0000     ZZ     -21.6674

 Total job time:  24.64s(wall), 66.54s(cpu)
        *  Thank you very much for using Q-Chem.  Have a nice day.  *
