 Q-Chem 5.3 (devel), Q-Chem, Inc., Pleasanton, CA (2020)
 Q-Chem 5.3.0 for Intel X86 EM64T Linux

User input:
--------------------------------------------------------------
$rem
   JOBTYPE  sp
   EXCHANGE   omegaB97X-D
   BASIS   6-311+G(2df,2pd)
   max_scf_cycles   250
   geom_opt_max_cycles   1500
   basis2 6-31G*
   scf_algorithm rca_diis
   SYM_IGNORE  TRUE
   print_input   true
   geom_opt_dmax   80
   pop_mulliken false
   XC_GRID 000075000302
$end

$molecule
0 1
C       1.0956844129     0.6365197424     0.2604155567
C       0.0000039582     -0.0000146632     -0.5863618375
H       1.5286694785     1.5296561099     -0.2038572923
H       1.8991169744     -0.0841932368     0.3972812816
H       0.7297634446     0.9111337976     1.2502698874
C       -1.0956869523     -0.6365101982     0.2604309354
H       0.3295644135     -0.8107866550     -1.2404235105
H       -0.3295469746     0.8107265154     -1.2404653815
H       -1.8990689275     0.0842511378     0.3973461702
H       -0.7297556143     -0.9111769315     1.2502667368
H       -1.5287442739     -1.5296049524     -0.2038575276
$end
--------------------------------------------------------------

             Standard Nuclear Orientation (Angstroms)
    I     Atom           X                Y                Z
 ----------------------------------------------------------------
    1      C       1.0956844129     0.6365197424     0.2604155567
    2      C       0.0000039582    -0.0000146632    -0.5863618375
    3      H       1.5286694785     1.5296561099    -0.2038572923
    4      H       1.8991169744    -0.0841932368     0.3972812816
    5      H       0.7297634446     0.9111337976     1.2502698874
    6      C      -1.0956869523    -0.6365101982     0.2604309354
    7      H       0.3295644135    -0.8107866550    -1.2404235105
    8      H      -0.3295469746     0.8107265154    -1.2404653815
    9      H      -1.8990689275     0.0842511378     0.3973461702
   10      H      -0.7297556143    -0.9111769315     1.2502667368
   11      H      -1.5287442739    -1.5296049524    -0.2038575276
 ----------------------------------------------------------------

    7    -119.0919555215      4.47E-06 Convergence criterion met
    6    -119.1352905890      4.01E-06 Convergence criterion met
 Total energy in the final basis set = -119.13529059

                    Orbital Energies (a.u.)
 --------------------------------------------------------------

 Alpha MOs
 -- Occupied --
-10.2721 -10.2646 -10.2646  -0.8816  -0.7771  -0.6776  -0.5453  -0.5266
 -0.4805  -0.4687  -0.4213  -0.4187  -0.3925

                    Cartesian Multipole Moments
 -----------------------------------------------------------------
    Charge (ESU x 10^10)
                 0.0000
    Dipole Moment (Debye)
         X       0.0000      Y       0.0000      Z      -0.0625
       Tot       0.0625
    Quadrupole Moments (Debye-Ang)
        XX     -22.3297     XY      -0.2119     YY     -21.2588
        XZ      -0.0000     YZ      -0.0000     ZZ     -21.8552

 Total job time:  25.42s(wall), 70.19s(cpu)
        *  Thank you very much for using Q-Chem.  Have a nice day.  *
