 Q-Chem 5.2 (devel), Q-Chem, Inc., Pleasanton, CA (2019)
 Q-Chem 5.2.2 for Intel X86 EM64T Linux

User input:
--------------------------------------------------------------
$rem
   JOBTYPE  sp
   EXCHANGE   omegaB97X-D
   BASIS   6-311+G(2df,2pd)
   max_scf_cycles   250
   geom_opt_max_cycles   1500
   basis2 6-31G*
   scf_algorithm rca_diis
   SYM_IGNORE  TRUE
   print_input   true
   geom_opt_dmax   80
   pop_mulliken false
   XC_GRID 000075000302
$end

$molecule
0 1
C       1.2671773146     -0.0022609833     0.2594500882
C       0.0000000001     0.0140021400     -0.5871418369
H       1.3047465918     -0.8650239679     0.8846526164
H       1.3057653359     0.8961586799     0.9230600753
H       2.1645868923     0.0036758731     -0.3600199968
C       -1.2671773115     -0.0022607609     0.2594501058
H       0.0000000028     -0.9133571016     -1.2859135931
H       -0.0000000671     0.8342558649     -1.2001850916
H       -1.3047466349     -0.8650241414     0.8846529245
H       -2.1645869017     0.0036766439     -0.3600199807
H       -1.3057652831     0.8961584194     0.9230597079
--------------------------------------------------------------

             Standard Nuclear Orientation (Angstroms)
    I     Atom           X                Y                Z
 ----------------------------------------------------------------
    1      C       1.2671773146    -0.0022609833     0.2594500882
    2      C       0.0000000001     0.0140021400    -0.5871418369
    3      H       1.3047465918    -0.8650239679     0.8846526164
    4      H       1.3057653359     0.8961586799     0.9230600753
    5      H       2.1645868923     0.0036758731    -0.3600199968
    6      C      -1.2671773115    -0.0022607609     0.2594501058
    7      H       0.0000000028    -0.9133571016    -1.2859135931
    8      H      -0.0000000671     0.8342558649    -1.2001850916
    9      H      -1.3047466349    -0.8650241414     0.8846529245
   10      H      -2.1645869017     0.0036766439    -0.3600199807
   11      H      -1.3057652831     0.8961584194     0.9230597079
 ----------------------------------------------------------------

    7    -119.0957915431      4.69E-06 Convergence criterion met
    6    -119.1390047317      3.91E-06 Convergence criterion met
 Total energy in the final basis set = -119.13900473

                    Orbital Energies (a.u.)
 --------------------------------------------------------------

 Alpha MOs
 -- Occupied --
-10.2737 -10.2652 -10.2652  -0.8819  -0.7775  -0.6799  -0.5455  -0.5239
 -0.4842  -0.4624  -0.4230  -0.4189  -0.4027

                    Cartesian Multipole Moments
 -----------------------------------------------------------------
    Charge (ESU x 10^10)
                 0.0000
    Dipole Moment (Debye)
         X      -0.0000      Y       0.0230      Z      -0.0762
       Tot       0.0796
    Quadrupole Moments (Debye-Ang)
        XX     -22.1543     XY      -0.0000     YY     -21.3666
        XZ      -0.0000     YZ      -0.1291     ZZ     -21.8612

 Total job time:  35.45s(wall), 98.84s(cpu)
        *  Thank you very much for using Q-Chem.  Have a nice day.  *
