 Q-Chem 5.3 (devel), Q-Chem, Inc., Pleasanton, CA (2020)
 Q-Chem 5.3.0 for Intel X86 EM64T Linux

User input:
--------------------------------------------------------------
$rem
   JOBTYPE  sp
   EXCHANGE   omegaB97X-D
   BASIS   6-311+G(2df,2pd)
   max_scf_cycles   250
   geom_opt_max_cycles   1500
   basis2 6-31G*
   scf_algorithm rca_diis
   SYM_IGNORE  TRUE
   print_input   true
   geom_opt_dmax   80
   pop_mulliken false
   XC_GRID 000075000302
$end

$molecule
0 1
C       1.2472971523     -0.2340872241     -0.1211103230
C       -0.0000020712     0.3136561069     0.5622177576
H       1.6599007047     0.7243129841     -0.4637981298
H       1.2305489047     -0.9206714723     -0.9616738994
H       1.9516859457     -0.6241731590     0.6142747768
C       -1.2472932504     -0.2340877408     -0.1211262694
H       0.0000005535     1.2554014155     0.0109990680
H       -0.0000093131     0.5402102565     1.6324809122
H       -1.6599717110     0.7243160494     -0.4637103103
H       -1.9516324969     -0.6242868253     0.6142470610
H       -1.2305244789     -0.9205897249     -0.9617556249
$end
--------------------------------------------------------------

             Standard Nuclear Orientation (Angstroms)
    I     Atom           X                Y                Z
 ----------------------------------------------------------------
    1      C       1.2472971523    -0.2340872241    -0.1211103230
    2      C      -0.0000020712     0.3136561069     0.5622177576
    3      H       1.6599007047     0.7243129841    -0.4637981298
    4      H       1.2305489047    -0.9206714723    -0.9616738994
    5      H       1.9516859457    -0.6241731590     0.6142747768
    6      C      -1.2472932504    -0.2340877408    -0.1211262694
    7      H       0.0000005535     1.2554014155     0.0109990680
    8      H      -0.0000093131     0.5402102565     1.6324809122
    9      H      -1.6599717110     0.7243160494    -0.4637103103
   10      H      -1.9516324969    -0.6242868253     0.6142470610
   11      H      -1.2305244789    -0.9205897249    -0.9617556249
 ----------------------------------------------------------------

    7    -119.0467752550      6.48E-06 Convergence criterion met
    5    -119.0919924883      9.32E-06 Convergence criterion met
 Total energy in the final basis set = -119.09199249

                    Orbital Energies (a.u.)
 --------------------------------------------------------------

 Alpha MOs
 -- Occupied --
-10.2738 -10.2620 -10.2620  -0.8888  -0.7783  -0.6745  -0.5539  -0.5123
 -0.4998  -0.4650  -0.4488  -0.3835  -0.3695

                    Cartesian Multipole Moments
 -----------------------------------------------------------------
    Charge (ESU x 10^10)
                -0.0000
    Dipole Moment (Debye)
         X      -0.0000      Y       0.2087      Z       0.0095
       Tot       0.2089
    Quadrupole Moments (Debye-Ang)
        XX     -23.3214     XY      -0.0000     YY     -21.5553
        XZ       0.0000     YZ       0.3283     ZZ     -20.8911

 Total job time:  25.28s(wall), 67.83s(cpu)
        *  Thank you very much for using Q-Chem.  Have a nice day.  *
