 Q-Chem 5.3 (devel), Q-Chem, Inc., Pleasanton, CA (2020)
 Q-Chem 5.3.0 for Intel X86 EM64T Linux

User input:
--------------------------------------------------------------
$rem
   JOBTYPE  sp
   EXCHANGE   omegaB97X-D
   BASIS   6-311+G(2df,2pd)
   max_scf_cycles   250
   geom_opt_max_cycles   1500
   basis2 6-31G*
   scf_algorithm rca_diis
   SYM_IGNORE  TRUE
   print_input   true
   geom_opt_dmax   80
   pop_mulliken false
   XC_GRID 000075000302
$end

$molecule
0 1
C       0.9683866780     -0.8171930011     0.2513759546
C       0.0000053295     0.0000166175     -0.5954551158
H       1.0711544219     -0.3294140664     1.2169551386
H       1.9710930932     -0.9000320154     -0.1859908036
H       0.5907799687     -1.8237558555     0.4340408147
C       -0.9683948034     0.8171796725     0.2513998211
H       -0.4309338231     -0.7628384241     -1.2482173960
H       0.4309586513     0.7629094445     -1.2481653778
H       -1.9711337870     0.8999218630     -0.1859074694
H       -0.5908505045     1.8237764750     0.4340071819
H       -1.0710652852     0.3294299560     1.2170022706
$end
--------------------------------------------------------------

             Standard Nuclear Orientation (Angstroms)
    I     Atom           X                Y                Z
 ----------------------------------------------------------------
    1      C       0.9683866780    -0.8171930011     0.2513759546
    2      C       0.0000053295     0.0000166175    -0.5954551158
    3      H       1.0711544219    -0.3294140664     1.2169551386
    4      H       1.9710930932    -0.9000320154    -0.1859908036
    5      H       0.5907799687    -1.8237558555     0.4340408147
    6      C      -0.9683948034     0.8171796725     0.2513998211
    7      H      -0.4309338231    -0.7628384241    -1.2482173960
    8      H       0.4309586513     0.7629094445    -1.2481653778
    9      H      -1.9711337870     0.8999218630    -0.1859074694
   10      H      -0.5908505045     1.8237764750     0.4340071819
   11      H      -1.0710652852     0.3294299560     1.2170022706
 ----------------------------------------------------------------

    7    -119.0904737775      4.51E-06 Convergence criterion met
    6    -119.1338400188      4.12E-06 Convergence criterion met
 Total energy in the final basis set = -119.13384002

                    Orbital Energies (a.u.)
 --------------------------------------------------------------

 Alpha MOs
 -- Occupied --
-10.2724 -10.2652 -10.2652  -0.8826  -0.7771  -0.6783  -0.5460  -0.5288
 -0.4766  -0.4706  -0.4245  -0.4149  -0.3937

                    Cartesian Multipole Moments
 -----------------------------------------------------------------
    Charge (ESU x 10^10)
                -0.0000
    Dipole Moment (Debye)
         X      -0.0000      Y      -0.0000      Z      -0.0558
       Tot       0.0558
    Quadrupole Moments (Debye-Ang)
        XX     -22.0906     XY       0.3278     YY     -21.2535
        XZ       0.0000     YZ       0.0000     ZZ     -22.0844

 Total job time:  25.62s(wall), 70.82s(cpu)
        *  Thank you very much for using Q-Chem.  Have a nice day.  *
