 Q-Chem 5.3 (devel), Q-Chem, Inc., Pleasanton, CA (2020)
 Q-Chem 5.3.0 for Intel X86 EM64T Linux

User input:
--------------------------------------------------------------
$rem
   JOBTYPE  sp
   EXCHANGE   omegaB97X-D
   BASIS   6-311+G(2df,2pd)
   max_scf_cycles   250
   geom_opt_max_cycles   1500
   basis2 6-31G*
   scf_algorithm rca_diis
   SYM_IGNORE  TRUE
   print_input   true
   geom_opt_dmax   80
   pop_mulliken false
   XC_GRID 000075000302
$end

$molecule
0 1
C       1.2524329025     -0.2486010446     -0.0750451280
C       -0.0000028475     0.4962339640     0.3714318224
H       1.9899609851     0.5578260861     0.0242850201
H       1.3494865504     -0.6762521525     -1.0690104027
H       1.5301748901     -1.0154656987     0.6487641858
C       -1.2524328062     -0.2486048210     -0.0750572634
H       -0.0000007255     1.2481564857     -0.4196334089
H       -0.0000086096     1.0206426579     1.3312959836
H       -1.9899922792     0.5577804749     0.0243689806
H       -1.5301135260     -1.0155410462     0.6487004196
H       -1.3495045947     -0.6761742397     -1.0690551900
$end
--------------------------------------------------------------

             Standard Nuclear Orientation (Angstroms)
    I     Atom           X                Y                Z
 ----------------------------------------------------------------
    1      C       1.2524329025    -0.2486010446    -0.0750451280
    2      C      -0.0000028475     0.4962339640     0.3714318224
    3      H       1.9899609851     0.5578260861     0.0242850201
    4      H       1.3494865504    -0.6762521525    -1.0690104027
    5      H       1.5301748901    -1.0154656987     0.6487641858
    6      C      -1.2524328062    -0.2486048210    -0.0750572634
    7      H      -0.0000007255     1.2481564857    -0.4196334089
    8      H      -0.0000086096     1.0206426579     1.3312959836
    9      H      -1.9899922792     0.5577804749     0.0243689806
   10      H      -1.5301135260    -1.0155410462     0.6487004196
   11      H      -1.3495045947    -0.6761742397    -1.0690551900
 ----------------------------------------------------------------

    7    -119.0710980723      6.52E-06 Convergence criterion met
    5    -119.1149595388      9.07E-06 Convergence criterion met
 Total energy in the final basis set = -119.11495954

                    Orbital Energies (a.u.)
 --------------------------------------------------------------

 Alpha MOs
 -- Occupied --
-10.2765 -10.2628 -10.2628  -0.8854  -0.7785  -0.6763  -0.5474  -0.5128
 -0.5014  -0.4650  -0.4496  -0.3842  -0.3840

                    Cartesian Multipole Moments
 -----------------------------------------------------------------
    Charge (ESU x 10^10)
                -0.0000
    Dipole Moment (Debye)
         X       0.0000      Y       0.2135      Z      -0.0362
       Tot       0.2165
    Quadrupole Moments (Debye-Ang)
        XX     -23.2049     XY      -0.0000     YY     -21.6576
        XZ       0.0000     YZ       0.5975     ZZ     -20.8218

 Total job time:  25.01s(wall), 67.03s(cpu)
        *  Thank you very much for using Q-Chem.  Have a nice day.  *
