 Q-Chem 5.3 (devel), Q-Chem, Inc., Pleasanton, CA (2020)
 Q-Chem 5.3.0 for Intel X86 EM64T Linux

User input:
--------------------------------------------------------------
$rem
   JOBTYPE  sp
   EXCHANGE   omegaB97X-D
   BASIS   6-311+G(2df,2pd)
   max_scf_cycles   250
   geom_opt_max_cycles   1500
   basis2 6-31G*
   scf_algorithm rca_diis
   SYM_IGNORE  TRUE
   print_input   true
   geom_opt_dmax   80
   pop_mulliken false
   XC_GRID 000075000302
$end

$molecule
0 1
C       1.2504691709     0.2450455212     -0.0959138331
C       -0.0000034583     -0.4306102098     0.4541163317
H       1.2678978989     0.7781930923     -1.0419067927
H       1.8936056577     -0.6397980985     -0.1875272525
H       1.7107906777     0.8849280548     0.6575961687
C       -1.2504669116     0.2450507507     -0.0959263697
H       -0.0000087685     -0.8388065359     1.4689556484
H       -0.0000014503     -1.2673684198     -0.2464763301
H       -1.2678945048     0.7781100573     -1.0419702112
H       -1.7107357282     0.8850247917     0.6575373891
H       -1.8936526442     -0.6397683380     -0.1874397296
$end
--------------------------------------------------------------

             Standard Nuclear Orientation (Angstroms)
    I     Atom           X                Y                Z
 ----------------------------------------------------------------
    1      C       1.2504691709     0.2450455212    -0.0959138331
    2      C      -0.0000034583    -0.4306102098     0.4541163317
    3      H       1.2678978989     0.7781930923    -1.0419067927
    4      H       1.8936056577    -0.6397980985    -0.1875272525
    5      H       1.7107906777     0.8849280548     0.6575961687
    6      C      -1.2504669116     0.2450507507    -0.0959263697
    7      H      -0.0000087685    -0.8388065359     1.4689556484
    8      H      -0.0000014503    -1.2673684198    -0.2464763301
    9      H      -1.2678945048     0.7781100573    -1.0419702112
   10      H      -1.7107357282     0.8850247917     0.6575373891
   11      H      -1.8936526442    -0.6397683380    -0.1874397296
 ----------------------------------------------------------------

    7    -119.0620616138      6.70E-06 Convergence criterion met
    5    -119.1063668489      9.08E-06 Convergence criterion met
 Total energy in the final basis set = -119.10636685

                    Orbital Energies (a.u.)
 --------------------------------------------------------------

 Alpha MOs
 -- Occupied --
-10.2756 -10.2622 -10.2622  -0.8863  -0.7784  -0.6757  -0.5486  -0.5113
 -0.5013  -0.4652  -0.4526  -0.3817  -0.3782

                    Cartesian Multipole Moments
 -----------------------------------------------------------------
    Charge (ESU x 10^10)
                -0.0000
    Dipole Moment (Debye)
         X      -0.0000      Y      -0.2070      Z      -0.0156
       Tot       0.2076
    Quadrupole Moments (Debye-Ang)
        XX     -23.3729     XY       0.0000     YY     -21.6275
        XZ       0.0000     YZ      -0.5353     ZZ     -20.7357

 Total job time:  25.53s(wall), 68.27s(cpu)
        *  Thank you very much for using Q-Chem.  Have a nice day.  *
