 Q-Chem 5.3 (devel), Q-Chem, Inc., Pleasanton, CA (2020)
 Q-Chem 5.3.0 for Intel X86 EM64T Linux

User input:
--------------------------------------------------------------
$rem
   JOBTYPE  sp
   EXCHANGE   omegaB97X-D
   BASIS   6-311+G(2df,2pd)
   max_scf_cycles   250
   geom_opt_max_cycles   1500
   basis2 6-31G*
   scf_algorithm rca_diis
   SYM_IGNORE  TRUE
   print_input   true
   geom_opt_dmax   80
   pop_mulliken false
   XC_GRID 000075000302
$end

$molecule
0 1
C       1.2095864224     -0.3776927005     0.2666715020
C       0.0000012398     0.0000087420     -0.5800659736
H       2.0459460709     -0.6375833573     -0.3815303384
H       1.0089632731     -1.2411691046     0.9080088666
H       1.5287219837     0.4485994263     0.9026872696
C       -1.2095866649     0.3776875309     0.2666778991
H       -0.1914730716     -0.8530754928     -1.2353070066
H       0.1914771869     0.8531111900     -1.2352834681
H       -1.0089887800     1.2411865539     0.9079917685
H       -1.5286844281     -0.4486035196     0.9027141021
H       -2.0459632928     0.6375313976     -0.3815196023
$end
--------------------------------------------------------------

             Standard Nuclear Orientation (Angstroms)
    I     Atom           X                Y                Z
 ----------------------------------------------------------------
    1      C       1.2095864224    -0.3776927005     0.2666715020
    2      C       0.0000012398     0.0000087420    -0.5800659736
    3      H       2.0459460709    -0.6375833573    -0.3815303384
    4      H       1.0089632731    -1.2411691046     0.9080088666
    5      H       1.5287219837     0.4485994263     0.9026872696
    6      C      -1.2095866649     0.3776875309     0.2666778991
    7      H      -0.1914730716    -0.8530754928    -1.2353070066
    8      H       0.1914771869     0.8531111900    -1.2352834681
    9      H      -1.0089887800     1.2411865539     0.9079917685
   10      H      -1.5286844281    -0.4486035196     0.9027141021
   11      H      -2.0459632928     0.6375313976    -0.3815196023
 ----------------------------------------------------------------

    7    -119.1017197139      4.61E-06 Convergence criterion met
    5    -119.1446612299      9.96E-06 Convergence criterion met
 Total energy in the final basis set = -119.14466123

                    Orbital Energies (a.u.)
 --------------------------------------------------------------

 Alpha MOs
 -- Occupied --
-10.2745 -10.2646 -10.2646  -0.8810  -0.7775  -0.6773  -0.5458  -0.5225
 -0.4850  -0.4647  -0.4192  -0.4172  -0.4045

                    Cartesian Multipole Moments
 -----------------------------------------------------------------
    Charge (ESU x 10^10)
                 0.0000
    Dipole Moment (Debye)
         X      -0.0000      Y       0.0000      Z      -0.1000
       Tot       0.1000
    Quadrupole Moments (Debye-Ang)
        XX     -22.2949     XY       0.1144     YY     -21.3105
        XZ       0.0000     YZ       0.0000     ZZ     -21.7800

 Total job time:  23.71s(wall), 64.74s(cpu)
        *  Thank you very much for using Q-Chem.  Have a nice day.  *
