 Q-Chem 5.3 (devel), Q-Chem, Inc., Pleasanton, CA (2020)
 Q-Chem 5.3.0 for Intel X86 EM64T Linux

User input:
--------------------------------------------------------------
$rem
   JOBTYPE  sp
   EXCHANGE   omegaB97X-D
   BASIS   6-311+G(2df,2pd)
   max_scf_cycles   250
   geom_opt_max_cycles   1500
   basis2 6-31G*
   scf_algorithm rca_diis
   SYM_IGNORE  TRUE
   print_input   true
   geom_opt_dmax   80
   pop_mulliken false
   XC_GRID 000075000302
$end

$molecule
0 1
C       1.2636203581     -0.1763655445     0.1503259725
C       -0.0000013256     0.5439828734     -0.3047310927
H       1.2510572576     -0.1230313239     1.2434595436
H       2.2095856031     0.2425238618     -0.1904126169
H       1.2429929625     -1.2313591792     -0.1247832924
C       -1.2636198206     -0.1763730148     0.1503240387
H       -0.0000003324     0.4106229709     -1.3885777336
H       -0.0000048739     1.6219017380     -0.1228075996
H       -1.2510373847     -0.1230878519     1.2434593168
H       -1.2430060425     -1.2313549094     -0.1248321475
H       -2.2095864622     0.2425410458     -0.1903793699
$end
--------------------------------------------------------------

             Standard Nuclear Orientation (Angstroms)
    I     Atom           X                Y                Z
 ----------------------------------------------------------------
    1      C       1.2636203581    -0.1763655445     0.1503259725
    2      C      -0.0000013256     0.5439828734    -0.3047310927
    3      H       1.2510572576    -0.1230313239     1.2434595436
    4      H       2.2095856031     0.2425238618    -0.1904126169
    5      H       1.2429929625    -1.2313591792    -0.1247832924
    6      C      -1.2636198206    -0.1763730148     0.1503240387
    7      H      -0.0000003324     0.4106229709    -1.3885777336
    8      H      -0.0000048739     1.6219017380    -0.1228075996
    9      H      -1.2510373847    -0.1230878519     1.2434593168
   10      H      -1.2430060425    -1.2313549094    -0.1248321475
   11      H      -2.2095864622     0.2425410458    -0.1903793699
 ----------------------------------------------------------------

    7    -119.0962052781      4.68E-06 Convergence criterion met
    6    -119.1393808826      4.14E-06 Convergence criterion met
 Total energy in the final basis set = -119.13938088

                    Orbital Energies (a.u.)
 --------------------------------------------------------------

 Alpha MOs
 -- Occupied --
-10.2742 -10.2663 -10.2663  -0.8834  -0.7768  -0.6783  -0.5483  -0.5292
 -0.4768  -0.4618  -0.4279  -0.4248  -0.3922

                    Cartesian Multipole Moments
 -----------------------------------------------------------------
    Charge (ESU x 10^10)
                 0.0000
    Dipole Moment (Debye)
         X      -0.0000      Y       0.0292      Z      -0.0830
       Tot       0.0880
    Quadrupole Moments (Debye-Ang)
        XX     -21.8819     XY      -0.0000     YY     -21.4646
        XZ      -0.0000     YZ       0.4431     ZZ     -22.0463

 Total job time:  27.31s(wall), 73.84s(cpu)
        *  Thank you very much for using Q-Chem.  Have a nice day.  *
