 Q-Chem 5.3 (devel), Q-Chem, Inc., Pleasanton, CA (2020)
 Q-Chem 5.3.0 for Intel X86 EM64T Linux

User input:
--------------------------------------------------------------
$rem
   JOBTYPE  sp
   EXCHANGE   omegaB97X-D
   BASIS   6-311+G(2df,2pd)
   max_scf_cycles   250
   geom_opt_max_cycles   1500
   basis2 6-31G*
   scf_algorithm rca_diis
   SYM_IGNORE  TRUE
   print_input   true
   geom_opt_dmax   80
   pop_mulliken false
   XC_GRID 000075000302
$end

$molecule
0 1
C       1.3668447889     -0.0000003577     0.2617334863
C       -0.0000000651     0.0000015669     -0.4379873689
H       1.5341418651     -0.8837373936     0.8797545707
H       1.5341451128     0.8837358001     0.8797549394
H       2.1266137594     -0.0000022322     -0.5225908159
C       -1.3668449690     0.0000003036     0.2617333328
H       0.0000003838     -0.8636002840     -1.1091365076
H       -0.0000002086     0.8636043582     -1.1091353063
H       -1.5341410910     -0.8837352039     0.8797568333
H       -2.1266140604     -0.0000038658     -0.5225907044
H       -1.5341455765     0.8837379744     0.8797525596
$end
--------------------------------------------------------------

             Standard Nuclear Orientation (Angstroms)
    I     Atom           X                Y                Z
 ----------------------------------------------------------------
    1      C       1.3668447889    -0.0000003577     0.2617334863
    2      C      -0.0000000651     0.0000015669    -0.4379873689
    3      H       1.5341418651    -0.8837373936     0.8797545707
    4      H       1.5341451128     0.8837358001     0.8797549394
    5      H       2.1266137594    -0.0000022322    -0.5225908159
    6      C      -1.3668449690     0.0000003036     0.2617333328
    7      H       0.0000003838    -0.8636002840    -1.1091365076
    8      H      -0.0000002086     0.8636043582    -1.1091353063
    9      H      -1.5341410910    -0.8837352039     0.8797568333
   10      H      -2.1266140604    -0.0000038658    -0.5225907044
   11      H      -1.5341455765     0.8837379744     0.8797525596
 ----------------------------------------------------------------

    7    -119.0967396722      4.19E-06 Convergence criterion met
    6    -119.1396339509      4.15E-06 Convergence criterion met
 Total energy in the final basis set = -119.13963395

                    Orbital Energies (a.u.)
 --------------------------------------------------------------

 Alpha MOs
 -- Occupied --
-10.2757 -10.2677 -10.2677  -0.8750  -0.7846  -0.6744  -0.5408  -0.5152
 -0.4911  -0.4703  -0.4249  -0.4062  -0.4030

                    Cartesian Multipole Moments
 -----------------------------------------------------------------
    Charge (ESU x 10^10)
                 0.0000
    Dipole Moment (Debye)
         X       0.0000      Y      -0.0000      Z      -0.1306
       Tot       0.1306
    Quadrupole Moments (Debye-Ang)
        XX     -22.0211     XY      -0.0000     YY     -21.4061
        XZ       0.0000     YZ       0.0000     ZZ     -21.7889

 Total job time:  24.82s(wall), 68.52s(cpu)
        *  Thank you very much for using Q-Chem.  Have a nice day.  *
