 Q-Chem 5.2 (devel), Q-Chem, Inc., Pleasanton, CA (2019)
 Q-Chem 5.2.2 for Intel X86 EM64T Linux

User input:
--------------------------------------------------------------
$rem
   JOBTYPE  sp
   EXCHANGE   omegaB97X-D
   BASIS   6-311+G(2df,2pd)
   max_scf_cycles   250
   geom_opt_max_cycles   1500
   basis2 6-31G*
   scf_algorithm rca_diis
   SYM_IGNORE  TRUE
   print_input   true
   geom_opt_dmax   80
   pop_mulliken false
   XC_GRID 000075000302
$end

$molecule
0 1
C       1.2628273758     -0.1073809468     0.2577814022
C       -0.0000000169     0.0000001339     -0.5886565380
H       1.3329225492     -0.9243874397     0.9777727927
H       1.2748663984     0.8318402437     0.8156970148
H       2.1580614401     -0.0416281538     -0.3613751292
C       -1.2628274862     0.1073807797     0.2577813560
H       0.3326461228     -0.8234911768     -1.2250251234
H       -0.3326464817     0.8234913125     -1.2250251493
H       -1.2748661647     -0.8318402719     0.8156971931
H       -2.1580613891     0.0416287678     -0.3613754513
H       -1.3329224082     0.9243874173     0.9777726514
--------------------------------------------------------------

             Standard Nuclear Orientation (Angstroms)
    I     Atom           X                Y                Z
 ----------------------------------------------------------------
    1      C       1.2628273758    -0.1073809468     0.2577814022
    2      C      -0.0000000169     0.0000001339    -0.5886565380
    3      H       1.3329225492    -0.9243874397     0.9777727927
    4      H       1.2748663984     0.8318402437     0.8156970148
    5      H       2.1580614401    -0.0416281538    -0.3613751292
    6      C      -1.2628274862     0.1073807797     0.2577813560
    7      H       0.3326461228    -0.8234911768    -1.2250251234
    8      H      -0.3326464817     0.8234913125    -1.2250251493
    9      H      -1.2748661647    -0.8318402719     0.8156971931
   10      H      -2.1580613891     0.0416287678    -0.3613754513
   11      H      -1.3329224082     0.9243874173     0.9777726514
 ----------------------------------------------------------------

    7    -119.0539846516      6.37E-06 Convergence criterion met
    6    -119.0986809110      4.44E-06 Convergence criterion met
 Total energy in the final basis set = -119.09868091

                    Orbital Energies (a.u.)
 --------------------------------------------------------------

 Alpha MOs
 -- Occupied --
-10.2734 -10.2680 -10.2680  -0.8869  -0.7834  -0.6773  -0.5514  -0.5273
 -0.5030  -0.4717  -0.4329  -0.4047  -0.3597

                    Cartesian Multipole Moments
 -----------------------------------------------------------------
    Charge (ESU x 10^10)
                -0.0000
    Dipole Moment (Debye)
         X       0.0000      Y       0.0000      Z      -0.0099
       Tot       0.0099
    Quadrupole Moments (Debye-Ang)
        XX     -21.9169     XY      -0.9303     YY     -21.6338
        XZ       0.0000     YZ      -0.0000     ZZ     -22.0886

 Total job time:  35.48s(wall), 99.07s(cpu)
        *  Thank you very much for using Q-Chem.  Have a nice day.  *
