 Q-Chem 5.3 (devel), Q-Chem, Inc., Pleasanton, CA (2020)
 Q-Chem 5.3.0 for Intel X86 EM64T Linux

User input:
--------------------------------------------------------------
$rem
   JOBTYPE  sp
   EXCHANGE   omegaB97X-D
   BASIS   6-311+G(2df,2pd)
   max_scf_cycles   250
   geom_opt_max_cycles   1500
   basis2 6-31G*
   scf_algorithm rca_diis
   SYM_IGNORE  TRUE
   print_input   true
   geom_opt_dmax   80
   pop_mulliken false
   XC_GRID 000075000302
$end

$molecule
0 1
C       1.2669099803     0.0524411737     0.2503364292
C       -0.0000001281     -0.1852203699     -0.5627915726
H       1.6642724726     -0.8674514791     0.6821123354
H       1.0449138466     0.7340750151     1.0749059542
H       2.0528896724     0.5065578917     -0.3539287257
C       -1.2669099009     0.0524442342     0.2503358916
H       -0.0000011081     -1.1846246221     -1.0047243792
H       0.0000008175     0.5185865834     -1.3982889436
H       -1.6642653254     -0.8674464147     0.6821228577
H       -2.0528935316     0.5065498619     -0.3539323599
H       -1.0449168560     0.7340887919     1.0748975317
$end
--------------------------------------------------------------

             Standard Nuclear Orientation (Angstroms)
    I     Atom           X                Y                Z
 ----------------------------------------------------------------
    1      C       1.2669099803     0.0524411737     0.2503364292
    2      C      -0.0000001281    -0.1852203699    -0.5627915726
    3      H       1.6642724726    -0.8674514791     0.6821123354
    4      H       1.0449138466     0.7340750151     1.0749059542
    5      H       2.0528896724     0.5065578917    -0.3539287257
    6      C      -1.2669099009     0.0524442342     0.2503358916
    7      H      -0.0000011081    -1.1846246221    -1.0047243792
    8      H       0.0000008175     0.5185865834    -1.3982889436
    9      H      -1.6642653254    -0.8674464147     0.6821228577
   10      H      -2.0528935316     0.5065498619    -0.3539323599
   11      H      -1.0449168560     0.7340887919     1.0748975317
 ----------------------------------------------------------------

    7    -119.0952563695      4.27E-06 Convergence criterion met
    6    -119.1385400546      3.98E-06 Convergence criterion met
 Total energy in the final basis set = -119.13854005

                    Orbital Energies (a.u.)
 --------------------------------------------------------------

 Alpha MOs
 -- Occupied --
-10.2725 -10.2640 -10.2640  -0.8815  -0.7762  -0.6782  -0.5450  -0.5281
 -0.4783  -0.4652  -0.4204  -0.4163  -0.4013

                    Cartesian Multipole Moments
 -----------------------------------------------------------------
    Charge (ESU x 10^10)
                 0.0000
    Dipole Moment (Debye)
         X      -0.0000      Y      -0.0100      Z      -0.0888
       Tot       0.0894
    Quadrupole Moments (Debye-Ang)
        XX     -22.2828     XY      -0.0000     YY     -21.2977
        XZ      -0.0000     YZ      -0.1556     ZZ     -21.8427

 Total job time:  26.61s(wall), 72.68s(cpu)
        *  Thank you very much for using Q-Chem.  Have a nice day.  *
