 Q-Chem 5.3 (devel), Q-Chem, Inc., Pleasanton, CA (2020)
 Q-Chem 5.3.0 for Intel X86 EM64T Linux

User input:
--------------------------------------------------------------
$rem
   JOBTYPE  sp
   EXCHANGE   omegaB97X-D
   BASIS   6-311+G(2df,2pd)
   max_scf_cycles   250
   geom_opt_max_cycles   1500
   basis2 6-31G*
   scf_algorithm rca_diis
   SYM_IGNORE  TRUE
   print_input   true
   geom_opt_dmax   80
   pop_mulliken false
   XC_GRID 000075000302
$end

$molecule
0 1
C       1.1915465019     -0.4312219888     0.2667958850
C       0.0000015937     0.0000099610     -0.5799499684
H       2.0925592057     -0.4334223970     -0.3453058092
H       1.0670492875     -1.4395063318     0.6738954865
H       1.3604516440     0.2515739955     1.1000923018
C       -1.1915471238     0.4312163838     0.2668037314
H       -0.2194650123     -0.8464443694     -1.2350112650
H       0.2194706544     0.8464848552     -1.2349846159
H       -1.0670873583     1.4395164523     0.6738741404
H       -1.3604103730     -0.2515679761     1.1001182266
H       -2.0925690804     0.4333620812     -0.3452830943
$end
--------------------------------------------------------------

             Standard Nuclear Orientation (Angstroms)
    I     Atom           X                Y                Z
 ----------------------------------------------------------------
    1      C       1.1915465019    -0.4312219888     0.2667958850
    2      C       0.0000015937     0.0000099610    -0.5799499684
    3      H       2.0925592057    -0.4334223970    -0.3453058092
    4      H       1.0670492875    -1.4395063318     0.6738954865
    5      H       1.3604516440     0.2515739955     1.1000923018
    6      C      -1.1915471238     0.4312163838     0.2668037314
    7      H      -0.2194650123    -0.8464443694    -1.2350112650
    8      H       0.2194706544     0.8464848552    -1.2349846159
    9      H      -1.0670873583     1.4395164523     0.6738741404
   10      H      -1.3604103730    -0.2515679761     1.1001182266
   11      H      -2.0925690804     0.4333620812    -0.3452830943
 ----------------------------------------------------------------

    7    -119.0997084738      4.58E-06 Convergence criterion met
    6    -119.1427029843      3.80E-06 Convergence criterion met
 Total energy in the final basis set = -119.14270298

                    Orbital Energies (a.u.)
 --------------------------------------------------------------

 Alpha MOs
 -- Occupied --
-10.2736 -10.2646 -10.2646  -0.8810  -0.7775  -0.6772  -0.5452  -0.5230
 -0.4842  -0.4664  -0.4194  -0.4181  -0.4008

                    Cartesian Multipole Moments
 -----------------------------------------------------------------
    Charge (ESU x 10^10)
                 0.0000
    Dipole Moment (Debye)
         X      -0.0000      Y       0.0000      Z      -0.1026
       Tot       0.1026
    Quadrupole Moments (Debye-Ang)
        XX     -22.2982     XY       0.1493     YY     -21.2760
        XZ       0.0000     YZ       0.0000     ZZ     -21.8086

 Total job time:  26.81s(wall), 73.05s(cpu)
        *  Thank you very much for using Q-Chem.  Have a nice day.  *
