 Q-Chem 5.3 (devel), Q-Chem, Inc., Pleasanton, CA (2020)
 Q-Chem 5.3.0 for Intel X86 EM64T Linux

User input:
--------------------------------------------------------------
$rem
   JOBTYPE  sp
   EXCHANGE   omegaB97X-D
   BASIS   6-311+G(2df,2pd)
   max_scf_cycles   250
   geom_opt_max_cycles   1500
   basis2 6-31G*
   scf_algorithm rca_diis
   SYM_IGNORE  TRUE
   print_input   true
   geom_opt_dmax   80
   pop_mulliken false
   XC_GRID 000075000302
$end

$molecule
0 1
C       1.0956734384     -0.6365213314     0.2604196622
C       0.0000031972     0.0000139770     -0.5863668247
H       1.8991073254     0.0841915341     0.3972779797
H       1.5286551443     -1.5296584019     -0.2038549008
H       0.7297525018     -0.9111312754     1.2502748973
C       -1.0956771371     0.6365131092     0.2604341062
H       -0.3295530101     -0.8107254336     -1.2404690407
H       0.3295667230     0.8107826906     -1.2404301522
H       -1.5287325038     1.5296057690     -0.2038549735
H       -0.7297356809     0.9111744434     1.2502675770
H       -1.8990600589     -0.0842444150     0.3973466885
$end
--------------------------------------------------------------

             Standard Nuclear Orientation (Angstroms)
    I     Atom           X                Y                Z
 ----------------------------------------------------------------
    1      C       1.0956734384    -0.6365213314     0.2604196622
    2      C       0.0000031972     0.0000139770    -0.5863668247
    3      H       1.8991073254     0.0841915341     0.3972779797
    4      H       1.5286551443    -1.5296584019    -0.2038549008
    5      H       0.7297525018    -0.9111312754     1.2502748973
    6      C      -1.0956771371     0.6365131092     0.2604341062
    7      H      -0.3295530101    -0.8107254336    -1.2404690407
    8      H       0.3295667230     0.8107826906    -1.2404301522
    9      H      -1.5287325038     1.5296057690    -0.2038549735
   10      H      -0.7297356809     0.9111744434     1.2502675770
   11      H      -1.8990600589    -0.0842444150     0.3973466885
 ----------------------------------------------------------------

    7    -119.0919552315      4.47E-06 Convergence criterion met
    6    -119.1352903530      4.01E-06 Convergence criterion met
 Total energy in the final basis set = -119.13529035

                    Orbital Energies (a.u.)
 --------------------------------------------------------------

 Alpha MOs
 -- Occupied --
-10.2721 -10.2646 -10.2646  -0.8816  -0.7771  -0.6776  -0.5453  -0.5266
 -0.4805  -0.4687  -0.4213  -0.4187  -0.3925

                    Cartesian Multipole Moments
 -----------------------------------------------------------------
    Charge (ESU x 10^10)
                 0.0000
    Dipole Moment (Debye)
         X       0.0000      Y      -0.0000      Z      -0.0625
       Tot       0.0625
    Quadrupole Moments (Debye-Ang)
        XX     -22.3297     XY       0.2119     YY     -21.2589
        XZ       0.0000     YZ       0.0000     ZZ     -21.8552

 Total job time:  26.15s(wall), 71.33s(cpu)
        *  Thank you very much for using Q-Chem.  Have a nice day.  *
