 Q-Chem 5.3 (devel), Q-Chem, Inc., Pleasanton, CA (2020)
 Q-Chem 5.3.0 for Intel X86 EM64T Linux

User input:
--------------------------------------------------------------
$rem
   JOBTYPE  sp
   EXCHANGE   omegaB97X-D
   BASIS   6-311+G(2df,2pd)
   UNRESTRICTED   False
   max_scf_cycles   250
   geom_opt_max_cycles   1500
   basis2 6-31G*
   scf_algorithm rca_diis
   SYM_IGNORE  TRUE
   print_input   true
   geom_opt_dmax   80
   pop_mulliken false
   XC_GRID 000075000302
$end

$molecule
0 1
C       1.2254488185     -0.1699923800     0.3876563435
C       -0.1392848369     -0.5712863011     -0.1593226194
H       1.1316943620     0.6423046853     1.1112300519
H       1.8796553951     0.1779577759     -0.4142911460
H       1.7206917162     -1.0048117286     0.8845803947
C       -1.1232387438     0.5923244436     -0.1831026779
H       -0.5498273776     -1.3832942101     0.4455365952
H       -0.0236773698     -0.9713837480     -1.1694283753
H       -1.2787567491     0.9916489905     0.8211529450
H       -2.0941875984     0.2897725163     -0.5766036794
H       -0.7485176769     1.4067606222     -0.8063628134
$end
--------------------------------------------------------------

             Standard Nuclear Orientation (Angstroms)
    I     Atom           X                Y                Z
 ----------------------------------------------------------------
    1      C       1.2254488185    -0.1699923800     0.3876563435
    2      C      -0.1392848369    -0.5712863011    -0.1593226194
    3      H       1.1316943620     0.6423046853     1.1112300519
    4      H       1.8796553951     0.1779577759    -0.4142911460
    5      H       1.7206917162    -1.0048117286     0.8845803947
    6      C      -1.1232387438     0.5923244436    -0.1831026779
    7      H      -0.5498273776    -1.3832942101     0.4455365952
    8      H      -0.0236773698    -0.9713837480    -1.1694283753
    9      H      -1.2787567491     0.9916489905     0.8211529450
   10      H      -2.0941875984     0.2897725163    -0.5766036794
   11      H      -0.7485176769     1.4067606222    -0.8063628134
 ----------------------------------------------------------------

    7    -119.1004352275      4.44E-06 Convergence criterion met
    6    -119.1434424594      3.91E-06 Convergence criterion met
 Total energy in the final basis set = -119.14344246

                    Orbital Energies (a.u.)
 --------------------------------------------------------------

 Alpha MOs
 -- Occupied --
-10.2733 -10.2652 -10.2643  -0.8811  -0.7769  -0.6777  -0.5452  -0.5250
 -0.4813  -0.4657  -0.4185  -0.4174  -0.4047

                    Cartesian Multipole Moments
 -----------------------------------------------------------------
    Charge (ESU x 10^10)
                -0.0000
    Dipole Moment (Debye)
         X      -0.0174      Y      -0.0780      Z      -0.0291
       Tot       0.0850
    Quadrupole Moments (Debye-Ang)
        XX     -22.1375     XY       0.1089     YY     -21.8353
        XZ      -0.2173     YZ      -0.0984     ZZ     -21.4072

 Total job time:  27.10s(wall), 73.42s(cpu)
        *  Thank you very much for using Q-Chem.  Have a nice day.  *
