 Q-Chem 5.3 (devel), Q-Chem, Inc., Pleasanton, CA (2020)
 Q-Chem 5.3.0 for Intel X86 EM64T Linux

User input:
--------------------------------------------------------------
$rem
   JOBTYPE  sp
   EXCHANGE   omegaB97X-D
   BASIS   6-311+G(2df,2pd)
   UNRESTRICTED   False
   max_scf_cycles   250
   geom_opt_max_cycles   1500
   basis2 6-31G*
   scf_algorithm rca_diis
   SYM_IGNORE  TRUE
   print_input   true
   geom_opt_dmax   80
   pop_mulliken false
   XC_GRID 000075000302
$end

$molecule
0 1
C       1.2274277377     -0.1681283791     0.3814787353
C       -0.1322584879     -0.5651841578     -0.1809453251
H       1.1465163958     0.7277051489     1.0004383274
H       1.9329306462     0.0504955613     -0.4226633856
H       1.6556248142     -0.9611004056     0.9954535018
C       -1.1307071587     0.5860750525     -0.1603727757
H       -0.5325100592     -1.4048828696     0.3921702344
H       -0.0118054786     -0.9247411789     -1.2056240615
H       -1.2910587962     0.9445847873     0.8584174001
H       -2.0978522037     0.2867191959     -0.5655133908
H       -0.7663074704     1.4284579112     -0.7517942414
$end
--------------------------------------------------------------

             Standard Nuclear Orientation (Angstroms)
    I     Atom           X                Y                Z
 ----------------------------------------------------------------
    1      C       1.2274277377    -0.1681283791     0.3814787353
    2      C      -0.1322584879    -0.5651841578    -0.1809453251
    3      H       1.1465163958     0.7277051489     1.0004383274
    4      H       1.9329306462     0.0504955613    -0.4226633856
    5      H       1.6556248142    -0.9611004056     0.9954535018
    6      C      -1.1307071587     0.5860750525    -0.1603727757
    7      H      -0.5325100592    -1.4048828696     0.3921702344
    8      H      -0.0118054786    -0.9247411789    -1.2056240615
    9      H      -1.2910587962     0.9445847873     0.8584174001
   10      H      -2.0978522037     0.2867191959    -0.5655133908
   11      H      -0.7663074704     1.4284579112    -0.7517942414
 ----------------------------------------------------------------

    7    -119.0990933319      4.41E-06 Convergence criterion met
    6    -119.1421445159      3.93E-06 Convergence criterion met
 Total energy in the final basis set = -119.14214452

                    Orbital Energies (a.u.)
 --------------------------------------------------------------

 Alpha MOs
 -- Occupied --
-10.2730 -10.2653 -10.2639  -0.8811  -0.7768  -0.6776  -0.5450  -0.5253
 -0.4805  -0.4669  -0.4188  -0.4167  -0.4034

                    Cartesian Multipole Moments
 -----------------------------------------------------------------
    Charge (ESU x 10^10)
                 0.0000
    Dipole Moment (Debye)
         X      -0.0154      Y      -0.0764      Z      -0.0310
       Tot       0.0839
    Quadrupole Moments (Debye-Ang)
        XX     -22.1672     XY       0.1092     YY     -21.8205
        XZ      -0.2287     YZ      -0.1242     ZZ     -21.4016

 Total job time:  27.47s(wall), 74.65s(cpu)
        *  Thank you very much for using Q-Chem.  Have a nice day.  *
