 Q-Chem 5.3 (devel), Q-Chem, Inc., Pleasanton, CA (2020)
 Q-Chem 5.3.0 for Intel X86 EM64T Linux

User input:
--------------------------------------------------------------
$rem
   JOBTYPE  sp
   EXCHANGE   omegaB97X-D
   BASIS   6-311+G(2df,2pd)
   UNRESTRICTED   False
   max_scf_cycles   250
   geom_opt_max_cycles   1500
   basis2 6-31G*
   scf_algorithm rca_diis
   SYM_IGNORE  TRUE
   print_input   true
   geom_opt_dmax   80
   pop_mulliken false
   XC_GRID 000075000302
$end

$molecule
0 1
C       1.2646558761     -0.0465307391     0.2666856273
C       -0.0074315281     -0.1625498917     -0.5646109138
H       1.8769531331     -0.9453162700     0.1694643835
H       1.0282678066     0.0772926731     1.3254413947
H       1.8705665558     0.8057784548     -0.0424481162
C       -1.2602336288     0.1708581985     0.2366672458
H       -0.0899107150     -1.1757973958     -0.9649649704
H       0.0601100610     0.5025913031     -1.4287764167
H       -1.3664169941     -0.5005902873     1.0911011659
H       -2.1613303659     0.0834225109     -0.3711995620
H       -1.2152302613     1.1908421095     0.6236851806
$end
--------------------------------------------------------------

             Standard Nuclear Orientation (Angstroms)
    I     Atom           X                Y                Z
 ----------------------------------------------------------------
    1      C       1.2646558761    -0.0465307391     0.2666856273
    2      C      -0.0074315281    -0.1625498917    -0.5646109138
    3      H       1.8769531331    -0.9453162700     0.1694643835
    4      H       1.0282678066     0.0772926731     1.3254413947
    5      H       1.8705665558     0.8057784548    -0.0424481162
    6      C      -1.2602336288     0.1708581985     0.2366672458
    7      H      -0.0899107150    -1.1757973958    -0.9649649704
    8      H       0.0601100610     0.5025913031    -1.4287764167
    9      H      -1.3664169941    -0.5005902873     1.0911011659
   10      H      -2.1613303659     0.0834225109    -0.3711995620
   11      H      -1.2152302613     1.1908421095     0.6236851806
 ----------------------------------------------------------------

    7    -119.0981480495      4.41E-06 Convergence criterion met
    6    -119.1412404957      3.94E-06 Convergence criterion met
 Total energy in the final basis set = -119.14124050

                    Orbital Energies (a.u.)
 --------------------------------------------------------------

 Alpha MOs
 -- Occupied --
-10.2727 -10.2653 -10.2636  -0.8811  -0.7768  -0.6776  -0.5448  -0.5254
 -0.4799  -0.4680  -0.4189  -0.4160  -0.4026

                    Cartesian Multipole Moments
 -----------------------------------------------------------------
    Charge (ESU x 10^10)
                -0.0000
    Dipole Moment (Debye)
         X       0.0028      Y      -0.0225      Z      -0.0805
       Tot       0.0836
    Quadrupole Moments (Debye-Ang)
        XX     -22.2579     XY       0.0698     YY     -21.3226
        XZ      -0.0708     YZ      -0.1453     ZZ     -21.8201

 Total job time:  28.64s(wall), 77.40s(cpu)
        *  Thank you very much for using Q-Chem.  Have a nice day.  *
