 Q-Chem 5.3 (devel), Q-Chem, Inc., Pleasanton, CA (2020)
 Q-Chem 5.3.0 for Intel X86 EM64T Linux

User input:
--------------------------------------------------------------
$rem
   JOBTYPE  sp
   EXCHANGE   omegaB97X-D
   BASIS   6-311+G(2df,2pd)
   UNRESTRICTED   False
   max_scf_cycles   250
   geom_opt_max_cycles   1500
   basis2 6-31G*
   scf_algorithm rca_diis
   SYM_IGNORE  TRUE
   print_input   true
   geom_opt_dmax   80
   pop_mulliken false
   XC_GRID 000075000302
$end

$molecule
0 1
C       1.2431062333     -0.3067040977     0.1819527585
C       0.0250871925     0.2927314431     -0.5107429871
H       1.1193427279     -1.3818769333     0.3263871736
H       1.3918862186     0.1422387260     1.1660717497
H       2.1531301740     -0.1498988207     -0.3980394118
C       -1.2588335229     0.0846914495     0.2836043581
H       -0.0846114272     -0.1507324127     -1.5032462429
H       0.1858302487     1.3616298378     -0.6700370023
H       -1.2610137902     0.6966237762     1.1878772007
H       -1.3813853431     -0.9563500627     0.5841638471
H       -2.1325387722     0.3676477605     -0.3069464248
$end
--------------------------------------------------------------

             Standard Nuclear Orientation (Angstroms)
    I     Atom           X                Y                Z
 ----------------------------------------------------------------
    1      C       1.2431062333    -0.3067040977     0.1819527585
    2      C       0.0250871925     0.2927314431    -0.5107429871
    3      H       1.1193427279    -1.3818769333     0.3263871736
    4      H       1.3918862186     0.1422387260     1.1660717497
    5      H       2.1531301740    -0.1498988207    -0.3980394118
    6      C      -1.2588335229     0.0846914495     0.2836043581
    7      H      -0.0846114272    -0.1507324127    -1.5032462429
    8      H       0.1858302487     1.3616298378    -0.6700370023
    9      H      -1.2610137902     0.6966237762     1.1878772007
   10      H      -1.3813853431    -0.9563500627     0.5841638471
   11      H      -2.1325387722     0.3676477605    -0.3069464248
 ----------------------------------------------------------------

    7    -119.1027073838      4.48E-06 Convergence criterion met
    6    -119.1456204575      3.85E-06 Convergence criterion met
 Total energy in the final basis set = -119.14562046

                    Orbital Energies (a.u.)
 --------------------------------------------------------------

 Alpha MOs
 -- Occupied --
-10.2739 -10.2650 -10.2650  -0.8811  -0.7772  -0.6776  -0.5457  -0.5238
 -0.4828  -0.4642  -0.4183  -0.4175  -0.4072

                    Cartesian Multipole Moments
 -----------------------------------------------------------------
    Charge (ESU x 10^10)
                -0.0000
    Dipole Moment (Debye)
         X       0.0006      Y       0.0451      Z      -0.0758
       Tot       0.0882
    Quadrupole Moments (Debye-Ang)
        XX     -22.1728     XY       0.1326     YY     -21.4651
        XZ       0.0477     YZ       0.1867     ZZ     -21.7345

 Total job time:  28.48s(wall), 76.54s(cpu)
        *  Thank you very much for using Q-Chem.  Have a nice day.  *
