 Q-Chem 5.3 (devel), Q-Chem, Inc., Pleasanton, CA (2020)
 Q-Chem 5.3.0 for Intel X86 EM64T Linux

User input:
--------------------------------------------------------------
$rem
   JOBTYPE  sp
   EXCHANGE   omegaB97X-D
   BASIS   6-311+G(2df,2pd)
   UNRESTRICTED   False
   max_scf_cycles   250
   geom_opt_max_cycles   1500
   basis2 6-31G*
   scf_algorithm rca_diis
   SYM_IGNORE  TRUE
   print_input   true
   geom_opt_dmax   80
   pop_mulliken false
   XC_GRID 000075000302
$end

$molecule
0 1
C       1.1866386356     -0.5031891953     0.0087660060
C       0.0797872110     0.4837871859     -0.3426287777
H       0.9160995153     -1.5164179713     -0.2951276657
H       1.3663682299     -0.5198745904     1.0856105641
H       2.1254366521     -0.2461695823     -0.4828858911
C       -1.2422901798     0.1428611260     0.3345724787
H       -0.0602587769     0.5036249873     -1.4260263383
H       0.3865375732     1.4924834084     -0.0559358449
H       -2.0169257099     0.8621719052     0.0612464858
H       -1.1503037702     0.1473828900     1.4211452738
H       -1.5910894410     -0.8466594975     0.0323087281
$end
--------------------------------------------------------------

             Standard Nuclear Orientation (Angstroms)
    I     Atom           X                Y                Z
 ----------------------------------------------------------------
    1      C       1.1866386356    -0.5031891953     0.0087660060
    2      C       0.0797872110     0.4837871859    -0.3426287777
    3      H       0.9160995153    -1.5164179713    -0.2951276657
    4      H       1.3663682299    -0.5198745904     1.0856105641
    5      H       2.1254366521    -0.2461695823    -0.4828858911
    6      C      -1.2422901798     0.1428611260     0.3345724787
    7      H      -0.0602587769     0.5036249873    -1.4260263383
    8      H       0.3865375732     1.4924834084    -0.0559358449
    9      H      -2.0169257099     0.8621719052     0.0612464858
   10      H      -1.1503037702     0.1473828900     1.4211452738
   11      H      -1.5910894410    -0.8466594975     0.0323087281
 ----------------------------------------------------------------

    7    -119.1030538282      4.49E-06 Convergence criterion met
    6    -119.1459457154      3.85E-06 Convergence criterion met
 Total energy in the final basis set = -119.14594572

                    Orbital Energies (a.u.)
 --------------------------------------------------------------

 Alpha MOs
 -- Occupied --
-10.2740 -10.2651 -10.2650  -0.8811  -0.7772  -0.6776  -0.5458  -0.5237
 -0.4829  -0.4640  -0.4181  -0.4175  -0.4077

                    Cartesian Multipole Moments
 -----------------------------------------------------------------
    Charge (ESU x 10^10)
                -0.0000
    Dipole Moment (Debye)
         X       0.0079      Y       0.0691      Z      -0.0540
       Tot       0.0880
    Quadrupole Moments (Debye-Ang)
        XX     -22.1311     XY       0.1607     YY     -21.7112
        XZ       0.1324     YZ       0.1986     ZZ     -21.5277

 Total job time:  27.76s(wall), 75.25s(cpu)
        *  Thank you very much for using Q-Chem.  Have a nice day.  *
