 Q-Chem 5.3 (devel), Q-Chem, Inc., Pleasanton, CA (2020)
 Q-Chem 5.3.0 for Intel X86 EM64T Linux

User input:
--------------------------------------------------------------
$rem
   JOBTYPE  sp
   EXCHANGE   omegaB97X-D
   BASIS   6-311+G(2df,2pd)
   UNRESTRICTED   False
   max_scf_cycles   250
   geom_opt_max_cycles   1500
   basis2 6-31G*
   scf_algorithm rca_diis
   SYM_IGNORE  TRUE
   print_input   true
   geom_opt_dmax   80
   pop_mulliken false
   XC_GRID 000075000302
$end

$molecule
0 1
C       1.2466729263     -0.2851324054     0.1932123371
C       0.0214712238     0.2719712562     -0.5217960864
H       1.1363273178     -1.3554315959     0.3788432105
H       1.3895059838     0.2030926399     1.1593439817
H       2.1548502274     -0.1393334511     -0.3925171565
C       -1.2600014893     0.0785296140     0.2801570069
H       -0.0823493922     -0.2106120240     -1.4965223807
H       0.1688767933     1.3358934562     -0.7220405418
H       -1.1965170179     0.5865095551     1.2445746557
H       -1.4597137207     -0.9764565369     0.4705293555
H       -2.1191229128     0.4909701578     -0.2527393631
$end
--------------------------------------------------------------

             Standard Nuclear Orientation (Angstroms)
    I     Atom           X                Y                Z
 ----------------------------------------------------------------
    1      C       1.2466729263    -0.2851324054     0.1932123371
    2      C       0.0214712238     0.2719712562    -0.5217960864
    3      H       1.1363273178    -1.3554315959     0.3788432105
    4      H       1.3895059838     0.2030926399     1.1593439817
    5      H       2.1548502274    -0.1393334511    -0.3925171565
    6      C      -1.2600014893     0.0785296140     0.2801570069
    7      H      -0.0823493922    -0.2106120240    -1.4965223807
    8      H       0.1688767933     1.3358934562    -0.7220405418
    9      H      -1.1965170179     0.5865095551     1.2445746557
   10      H      -1.4597137207    -0.9764565369     0.4705293555
   11      H      -2.1191229128     0.4909701578    -0.2527393631
 ----------------------------------------------------------------

    7    -119.1030445312      4.49E-06 Convergence criterion met
    6    -119.1459365737      3.85E-06 Convergence criterion met
 Total energy in the final basis set = -119.14593657

                    Orbital Energies (a.u.)
 --------------------------------------------------------------

 Alpha MOs
 -- Occupied --
-10.2740 -10.2651 -10.2650  -0.8811  -0.7772  -0.6776  -0.5458  -0.5237
 -0.4829  -0.4640  -0.4181  -0.4175  -0.4077

                    Cartesian Multipole Moments
 -----------------------------------------------------------------
    Charge (ESU x 10^10)
                -0.0000
    Dipole Moment (Debye)
         X      -0.0000      Y       0.0405      Z      -0.0782
       Tot       0.0880
    Quadrupole Moments (Debye-Ang)
        XX     -22.1723     XY       0.1214     YY     -21.4528
        XZ       0.0335     YZ       0.1786     ZZ     -21.7464

 Total job time:  27.87s(wall), 75.42s(cpu)
        *  Thank you very much for using Q-Chem.  Have a nice day.  *
