 Q-Chem 5.3 (devel), Q-Chem, Inc., Pleasanton, CA (2020)
 Q-Chem 5.3.0 for Intel X86 EM64T Linux

User input:
--------------------------------------------------------------
$rem
   JOBTYPE  sp
   EXCHANGE   omegaB97X-D
   BASIS   6-311+G(2df,2pd)
   UNRESTRICTED   False
   max_scf_cycles   250
   geom_opt_max_cycles   1500
   basis2 6-31G*
   scf_algorithm rca_diis
   SYM_IGNORE  TRUE
   print_input   true
   geom_opt_dmax   80
   pop_mulliken false
   XC_GRID 000075000302
$end

$molecule
0 1
C       1.2405354661     -0.1469549651     0.3401194209
C       -0.0858912259     -0.4969638606     -0.3238133700
H       1.5142010082     0.8910480128     0.1405390591
H       2.0456354816     -0.7783401224     -0.0411181429
H       1.1958826227     -0.2788593837     1.4216598653
C       -1.1801567183     0.5166117434     -0.0108145291
H       -0.4052320291     -1.4899778663     0.0013040357
H       0.0536278031     -0.5601215940     -1.4056184508
H       -1.3593975224     0.5768672576     1.0645539227
H       -2.1222333727     0.2527414943     -0.4924642503
H       -0.8969715739     1.5139499503     -0.3533025417
$end
--------------------------------------------------------------

             Standard Nuclear Orientation (Angstroms)
    I     Atom           X                Y                Z
 ----------------------------------------------------------------
    1      C       1.2405354661    -0.1469549651     0.3401194209
    2      C      -0.0858912259    -0.4969638606    -0.3238133700
    3      H       1.5142010082     0.8910480128     0.1405390591
    4      H       2.0456354816    -0.7783401224    -0.0411181429
    5      H       1.1958826227    -0.2788593837     1.4216598653
    6      C      -1.1801567183     0.5166117434    -0.0108145291
    7      H      -0.4052320291    -1.4899778663     0.0013040357
    8      H       0.0536278031    -0.5601215940    -1.4056184508
    9      H      -1.3593975224     0.5768672576     1.0645539227
   10      H      -2.1222333727     0.2527414943    -0.4924642503
   11      H      -0.8969715739     1.5139499503    -0.3533025417
 ----------------------------------------------------------------

    7    -119.1027053633      4.48E-06 Convergence criterion met
    6    -119.1456146455      3.85E-06 Convergence criterion met
 Total energy in the final basis set = -119.14561465

                    Orbital Energies (a.u.)
 --------------------------------------------------------------

 Alpha MOs
 -- Occupied --
-10.2739 -10.2650 -10.2650  -0.8811  -0.7771  -0.6776  -0.5458  -0.5238
 -0.4827  -0.4643  -0.4182  -0.4174  -0.4074

                    Cartesian Multipole Moments
 -----------------------------------------------------------------
    Charge (ESU x 10^10)
                -0.0000
    Dipole Moment (Debye)
         X      -0.0094      Y      -0.0719      Z      -0.0499
       Tot       0.0880
    Quadrupole Moments (Debye-Ang)
        XX     -22.1280     XY       0.1628     YY     -21.7272
        XZ      -0.1497     YZ      -0.1943     ZZ     -21.5158

 Total job time:  27.50s(wall), 74.76s(cpu)
        *  Thank you very much for using Q-Chem.  Have a nice day.  *
