 Q-Chem 5.3 (devel), Q-Chem, Inc., Pleasanton, CA (2020)
 Q-Chem 5.3.0 for Intel X86 EM64T Linux

User input:
--------------------------------------------------------------
$rem
   JOBTYPE  sp
   EXCHANGE   omegaB97X-D
   BASIS   6-311+G(2df,2pd)
   UNRESTRICTED   False
   max_scf_cycles   250
   geom_opt_max_cycles   1500
   basis2 6-31G*
   scf_algorithm rca_diis
   SYM_IGNORE  TRUE
   print_input   true
   geom_opt_dmax   80
   pop_mulliken false
   XC_GRID 000075000302
$end

$molecule
0 1
C       1.2440115059     -0.1385281535     0.3291428609
C       -0.0738416831     -0.4698178064     -0.3609519771
H       1.6692341086     0.7861177675     -0.0663201470
H       1.9772031398     -0.9318592065     0.1702995415
H       1.1143316149     -0.0136440015     1.4046471424
C       -1.1929324998     0.4889456064     0.0278014274
H       -0.3678086654     -1.4925517249     -0.1132516807
H       0.0661727672     -0.4463014591     -1.4442800099
H       -1.3725894501     0.4620317619     1.1044510107
H       -2.1285456538     0.2391948698     -0.4735716678
H       -0.9352352448     1.5164130122     -0.2369214815
$end
--------------------------------------------------------------

             Standard Nuclear Orientation (Angstroms)
    I     Atom           X                Y                Z
 ----------------------------------------------------------------
    1      C       1.2440115059    -0.1385281535     0.3291428609
    2      C      -0.0738416831    -0.4698178064    -0.3609519771
    3      H       1.6692341086     0.7861177675    -0.0663201470
    4      H       1.9772031398    -0.9318592065     0.1702995415
    5      H       1.1143316149    -0.0136440015     1.4046471424
    6      C      -1.1929324998     0.4889456064     0.0278014274
    7      H      -0.3678086654    -1.4925517249    -0.1132516807
    8      H       0.0661727672    -0.4463014591    -1.4442800099
    9      H      -1.3725894501     0.4620317619     1.1044510107
   10      H      -2.1285456538     0.2391948698    -0.4735716678
   11      H      -0.9352352448     1.5164130122    -0.2369214815
 ----------------------------------------------------------------

    7    -119.1027088790      4.48E-06 Convergence criterion met
    6    -119.1456209571      3.85E-06 Convergence criterion met
 Total energy in the final basis set = -119.14562096

                    Orbital Energies (a.u.)
 --------------------------------------------------------------

 Alpha MOs
 -- Occupied --
-10.2739 -10.2650 -10.2650  -0.8811  -0.7772  -0.6776  -0.5457  -0.5238
 -0.4828  -0.4642  -0.4183  -0.4175  -0.4072

                    Cartesian Multipole Moments
 -----------------------------------------------------------------
    Charge (ESU x 10^10)
                -0.0000
    Dipole Moment (Debye)
         X      -0.0064      Y      -0.0662      Z      -0.0580
       Tot       0.0883
    Quadrupole Moments (Debye-Ang)
        XX     -22.1437     XY       0.1544     YY     -21.6901
        XZ      -0.1244     YZ      -0.2080     ZZ     -21.5375

 Total job time:  28.54s(wall), 77.08s(cpu)
        *  Thank you very much for using Q-Chem.  Have a nice day.  *
