 Q-Chem 5.2 (devel), Q-Chem, Inc., Pleasanton, CA (2019)
 Q-Chem 5.2.2 for Intel X86 EM64T Linux

User input:
--------------------------------------------------------------
$rem
   JOBTYPE  sp
   EXCHANGE   omegaB97X-D
   BASIS   6-311+G(2df,2pd)
   max_scf_cycles   250
   geom_opt_max_cycles   1500
   basis2 6-31G*
   scf_algorithm rca_diis
   SYM_IGNORE  TRUE
   print_input   true
   geom_opt_dmax   80
   pop_mulliken false
   XC_GRID 000075000302
$end

$molecule
0 1
C       1.2473455713     -0.1291951336     0.3186783069
C       -0.0624650618     -0.4396135291     -0.3959952424
H       1.8216921698     0.6208603819     -0.2288615466
H       1.8681911538     -1.0237082126     0.4002236614
H       1.0752705416     0.2512886879     1.3260627979
C       -1.2049023090     0.4580907936     0.0641076972
H       -0.3303866161     -1.4853974906     -0.2277146724
H       0.0758164695     -0.3295875469     -1.4742052905
H       -1.3827352010     0.3441940981     1.1353621547
H       -2.1344515550     0.2240821397     -0.4557972098
H       -0.9733752236     1.5089864773     -0.1208156375
--------------------------------------------------------------

             Standard Nuclear Orientation (Angstroms)
    I     Atom           X                Y                Z
 ----------------------------------------------------------------
    1      C       1.2473455713    -0.1291951336     0.3186783069
    2      C      -0.0624650618    -0.4396135291    -0.3959952424
    3      H       1.8216921698     0.6208603819    -0.2288615466
    4      H       1.8681911538    -1.0237082126     0.4002236614
    5      H       1.0752705416     0.2512886879     1.3260627979
    6      C      -1.2049023090     0.4580907936     0.0641076972
    7      H      -0.3303866161    -1.4853974906    -0.2277146724
    8      H       0.0758164695    -0.3295875469    -1.4742052905
    9      H      -1.3827352010     0.3441940981     1.1353621547
   10      H      -2.1344515550     0.2240821397    -0.4557972098
   11      H      -0.9733752236     1.5089864773    -0.1208156375
 ----------------------------------------------------------------

    7    -119.1004121363      4.44E-06 Convergence criterion met
    6    -119.1434190134      3.88E-06 Convergence criterion met
 Total energy in the final basis set = -119.14341901

                    Orbital Energies (a.u.)
 --------------------------------------------------------------

 Alpha MOs
 -- Occupied --
-10.2733 -10.2651 -10.2643  -0.8810  -0.7770  -0.6776  -0.5452  -0.5245
 -0.4818  -0.4657  -0.4190  -0.4166  -0.4045

                    Cartesian Multipole Moments
 -----------------------------------------------------------------
    Charge (ESU x 10^10)
                -0.0000
    Dipole Moment (Debye)
         X      -0.0041      Y      -0.0607      Z      -0.0627
       Tot       0.0874
    Quadrupole Moments (Debye-Ang)
        XX     -22.1924     XY       0.1389     YY     -21.6319
        XZ      -0.1328     YZ      -0.2345     ZZ     -21.5589

 Total job time:  40.43s(wall), 112.35s(cpu)
        *  Thank you very much for using Q-Chem.  Have a nice day.  *
