 Q-Chem 5.3 (devel), Q-Chem, Inc., Pleasanton, CA (2020)
 Q-Chem 5.3.0 for Intel X86 EM64T Linux

User input:
--------------------------------------------------------------
$rem
   JOBTYPE  sp
   EXCHANGE   omegaB97X-D
   BASIS   6-311+G(2df,2pd)
   UNRESTRICTED   False
   max_scf_cycles   250
   geom_opt_max_cycles   1500
   basis2 6-31G*
   scf_algorithm rca_diis
   SYM_IGNORE  TRUE
   print_input   true
   geom_opt_dmax   80
   pop_mulliken false
   XC_GRID 000075000302
$end

$molecule
0 1
C       1.2369321378     -0.1543853662     0.3515269066
C       -0.0985371307     -0.5208452839     -0.2848296829
H       1.3714361656     0.9288282803     0.3785859955
H       2.0682838639     -0.5747777212     -0.2179464527
H       1.3104260373     -0.5260073291     1.3740816232
C       -1.1666830116     0.5409149836     -0.0514838910
H       -0.4423898693     -1.4776681351     0.1151853382
H       0.0382587713     -0.6702580899     -1.3584773840
H       -1.3432675330     0.6879392719     1.0159321785
H       -2.1155760485     0.2646359172     -0.5123464162
H       -0.8588834434     1.5016241383     -0.4691831963
$end
--------------------------------------------------------------

             Standard Nuclear Orientation (Angstroms)
    I     Atom           X                Y                Z
 ----------------------------------------------------------------
    1      C       1.2369321378    -0.1543853662     0.3515269066
    2      C      -0.0985371307    -0.5208452839    -0.2848296829
    3      H       1.3714361656     0.9288282803     0.3785859955
    4      H       2.0682838639    -0.5747777212    -0.2179464527
    5      H       1.3104260373    -0.5260073291     1.3740816232
    6      C      -1.1666830116     0.5409149836    -0.0514838910
    7      H      -0.4423898693    -1.4776681351     0.1151853382
    8      H       0.0382587713    -0.6702580899    -1.3584773840
    9      H      -1.3432675330     0.6879392719     1.0159321785
   10      H      -2.1155760485     0.2646359172    -0.5123464162
   11      H      -0.8588834434     1.5016241383    -0.4691831963
 ----------------------------------------------------------------

    7    -119.1004334023      4.45E-06 Convergence criterion met
    6    -119.1434429125      3.89E-06 Convergence criterion met
 Total energy in the final basis set = -119.14344291

                    Orbital Energies (a.u.)
 --------------------------------------------------------------

 Alpha MOs
 -- Occupied --
-10.2733 -10.2651 -10.2643  -0.8811  -0.7769  -0.6776  -0.5453  -0.5246
 -0.4814  -0.4659  -0.4186  -0.4168  -0.4049

                    Cartesian Multipole Moments
 -----------------------------------------------------------------
    Charge (ESU x 10^10)
                -0.0000
    Dipole Moment (Debye)
         X      -0.0114      Y      -0.0746      Z      -0.0427
       Tot       0.0867
    Quadrupole Moments (Debye-Ang)
        XX     -22.1520     XY       0.1537     YY     -21.7494
        XZ      -0.2001     YZ      -0.1936     ZZ     -21.4809

 Total job time:  27.73s(wall), 75.21s(cpu)
        *  Thank you very much for using Q-Chem.  Have a nice day.  *
