 Q-Chem 5.3 (devel), Q-Chem, Inc., Pleasanton, CA (2020)
 Q-Chem 5.3.0 for Intel X86 EM64T Linux

User input:
--------------------------------------------------------------
$rem
   JOBTYPE  sp
   EXCHANGE   omegaB97X-D
   BASIS   6-311+G(2df,2pd)
   UNRESTRICTED   False
   max_scf_cycles   250
   geom_opt_max_cycles   1500
   basis2 6-31G*
   scf_algorithm rca_diis
   SYM_IGNORE  TRUE
   print_input   true
   geom_opt_dmax   80
   pop_mulliken false
   XC_GRID 000075000302
$end

$molecule
0 1
C       1.2636517488     -0.1228681919     0.2478144577
C       0.0038080091     0.1168113101     -0.5756345298
H       1.2435943261     -1.1109410735     0.7120180902
H       1.3522053358     0.6146113067     1.0481003961
H       2.1629461644     -0.0599735507     -0.3657295123
C       -1.2658905719     0.0333541042     0.2631867595
H       -0.0462621518     -0.6141678328     -1.3861400284
H       0.0615112293     1.0980777273     -1.0526494650
H       -1.0484581712     -0.3503205416     1.2620322016
H       -2.0068297787     -0.6237060878     -0.1933254318
H       -1.7202762006     1.0191234960     0.3813720812
$end
--------------------------------------------------------------

             Standard Nuclear Orientation (Angstroms)
    I     Atom           X                Y                Z
 ----------------------------------------------------------------
    1      C       1.2636517488    -0.1228681919     0.2478144577
    2      C       0.0038080091     0.1168113101    -0.5756345298
    3      H       1.2435943261    -1.1109410735     0.7120180902
    4      H       1.3522053358     0.6146113067     1.0481003961
    5      H       2.1629461644    -0.0599735507    -0.3657295123
    6      C      -1.2658905719     0.0333541042     0.2631867595
    7      H      -0.0462621518    -0.6141678328    -1.3861400284
    8      H       0.0615112293     1.0980777273    -1.0526494650
    9      H      -1.0484581712    -0.3503205416     1.2620322016
   10      H      -2.0068297787    -0.6237060878    -0.1933254318
   11      H      -1.7202762006     1.0191234960     0.3813720812
 ----------------------------------------------------------------

    7    -119.0981407919      4.40E-06 Convergence criterion met
    6    -119.1412320038      3.94E-06 Convergence criterion met
 Total energy in the final basis set = -119.14123200

                    Orbital Energies (a.u.)
 --------------------------------------------------------------

 Alpha MOs
 -- Occupied --
-10.2727 -10.2653 -10.2636  -0.8811  -0.7768  -0.6776  -0.5448  -0.5256
 -0.4798  -0.4679  -0.4189  -0.4162  -0.4025

                    Cartesian Multipole Moments
 -----------------------------------------------------------------
    Charge (ESU x 10^10)
                -0.0000
    Dipole Moment (Debye)
         X      -0.0024      Y       0.0180      Z      -0.0810
       Tot       0.0830
    Quadrupole Moments (Debye-Ang)
        XX     -22.2530     XY       0.0647     YY     -21.3038
        XZ       0.0684     YZ       0.1002     ZZ     -21.8432

 Total job time:  27.81s(wall), 75.22s(cpu)
        *  Thank you very much for using Q-Chem.  Have a nice day.  *
