 Q-Chem 5.3 (devel), Q-Chem, Inc., Pleasanton, CA (2020)
 Q-Chem 5.3.0 for Intel X86 EM64T Linux

User input:
--------------------------------------------------------------
$rem
   JOBTYPE  sp
   EXCHANGE   omegaB97X-D
   BASIS   6-311+G(2df,2pd)
   UNRESTRICTED   False
   max_scf_cycles   250
   geom_opt_max_cycles   1500
   basis2 6-31G*
   scf_algorithm rca_diis
   SYM_IGNORE  TRUE
   print_input   true
   geom_opt_dmax   80
   pop_mulliken false
   XC_GRID 000075000302
$end

$molecule
0 1
C       1.2499567178     -0.2630835493     0.2036356123
C       0.0181159334     0.2507899672     -0.5320430119
H       1.1529407165     -1.3267617579     0.4302451795
H       1.3863642659     0.2636265628     1.1502848453
H       2.1564285826     -0.1285374807     -0.3874045714
C       -1.2610960557     0.0722745235     0.2769499860
H       -0.0793499927     -0.2701251487     -1.4875033862
H       0.1522734203     1.3079986916     -0.7730163990
H       -1.1406323380     0.4658314307     1.2882742432
H       -1.5419837564     -0.9782511614     0.3583150280
H       -2.0930175544     0.6062385882     -0.1866925069
$end
--------------------------------------------------------------

             Standard Nuclear Orientation (Angstroms)
    I     Atom           X                Y                Z
 ----------------------------------------------------------------
    1      C       1.2499567178    -0.2630835493     0.2036356123
    2      C       0.0181159334     0.2507899672    -0.5320430119
    3      H       1.1529407165    -1.3267617579     0.4302451795
    4      H       1.3863642659     0.2636265628     1.1502848453
    5      H       2.1564285826    -0.1285374807    -0.3874045714
    6      C      -1.2610960557     0.0722745235     0.2769499860
    7      H      -0.0793499927    -0.2701251487    -1.4875033862
    8      H       0.1522734203     1.3079986916    -0.7730163990
    9      H      -1.1406323380     0.4658314307     1.2882742432
   10      H      -1.5419837564    -0.9782511614     0.3583150280
   11      H      -2.0930175544     0.6062385882    -0.1866925069
 ----------------------------------------------------------------

    7    -119.1026900079      4.48E-06 Convergence criterion met
    6    -119.1455966307      3.85E-06 Convergence criterion met
 Total energy in the final basis set = -119.14559663

                    Orbital Energies (a.u.)
 --------------------------------------------------------------

 Alpha MOs
 -- Occupied --
-10.2739 -10.2650 -10.2650  -0.8811  -0.7771  -0.6776  -0.5458  -0.5238
 -0.4827  -0.4643  -0.4182  -0.4174  -0.4074

                    Cartesian Multipole Moments
 -----------------------------------------------------------------
    Charge (ESU x 10^10)
                -0.0000
    Dipole Moment (Debye)
         X      -0.0006      Y       0.0359      Z      -0.0803
       Tot       0.0880
    Quadrupole Moments (Debye-Ang)
        XX     -22.1807     XY       0.1079     YY     -21.4331
        XZ       0.0293     YZ       0.1749     ZZ     -21.7591

 Total job time:  27.02s(wall), 73.62s(cpu)
        *  Thank you very much for using Q-Chem.  Have a nice day.  *
