 Q-Chem 5.3 (devel), Q-Chem, Inc., Pleasanton, CA (2020)
 Q-Chem 5.3.0 for Intel X86 EM64T Linux

User input:
--------------------------------------------------------------
$rem
   JOBTYPE  sp
   EXCHANGE   omegaB97X-D
   BASIS   6-311+G(2df,2pd)
   UNRESTRICTED   False
   max_scf_cycles   250
   geom_opt_max_cycles   1500
   basis2 6-31G*
   scf_algorithm rca_diis
   SYM_IGNORE  TRUE
   print_input   true
   geom_opt_dmax   80
   pop_mulliken false
   XC_GRID 000075000302
$end

$molecule
0 1
C       1.2387490010     -0.1507997753     0.3457739856
C       -0.0921443346     -0.5093241423     -0.3045366747
H       1.4404074626     0.9185735995     0.2566124364
H       2.0628239641     -0.6819473213     -0.1348069873
H       1.2497564227     -0.4057938805     1.4059528516
C       -1.1735001158     0.5291931551     -0.0309087438
H       -0.4238599746     -1.4850374827     0.0583750269
H       0.0462905820     -0.6156969682     -1.3830900054
H       -1.3516918135     0.6329185326     1.0413151436
H       -2.1189438604     0.2588997839     -0.5022896983
H       -0.8778873942     1.5090151651     -0.4113523156
$end
--------------------------------------------------------------

             Standard Nuclear Orientation (Angstroms)
    I     Atom           X                Y                Z
 ----------------------------------------------------------------
    1      C       1.2387490010    -0.1507997753     0.3457739856
    2      C      -0.0921443346    -0.5093241423    -0.3045366747
    3      H       1.4404074626     0.9185735995     0.2566124364
    4      H       2.0628239641    -0.6819473213    -0.1348069873
    5      H       1.2497564227    -0.4057938805     1.4059528516
    6      C      -1.1735001158     0.5291931551    -0.0309087438
    7      H      -0.4238599746    -1.4850374827     0.0583750269
    8      H       0.0462905820    -0.6156969682    -1.3830900054
    9      H      -1.3516918135     0.6329185326     1.0413151436
   10      H      -2.1189438604     0.2588997839    -0.5022896983
   11      H      -0.8778873942     1.5090151651    -0.4113523156
 ----------------------------------------------------------------

    7    -119.1017514583      4.47E-06 Convergence criterion met
    6    -119.1447068810      3.87E-06 Convergence criterion met
 Total energy in the final basis set = -119.14470688

                    Orbital Energies (a.u.)
 --------------------------------------------------------------

 Alpha MOs
 -- Occupied --
-10.2737 -10.2651 -10.2647  -0.8811  -0.7771  -0.6776  -0.5456  -0.5241
 -0.4822  -0.4650  -0.4183  -0.4172  -0.4063

                    Cartesian Multipole Moments
 -----------------------------------------------------------------
    Charge (ESU x 10^10)
                 0.0000
    Dipole Moment (Debye)
         X      -0.0106      Y      -0.0739      Z      -0.0461
       Tot       0.0878
    Quadrupole Moments (Debye-Ang)
        XX     -22.1355     XY       0.1601     YY     -21.7393
        XZ      -0.1737     YZ      -0.1937     ZZ     -21.5002

 Total job time:  28.18s(wall), 76.14s(cpu)
        *  Thank you very much for using Q-Chem.  Have a nice day.  *
