 Q-Chem 5.3 (devel), Q-Chem, Inc., Pleasanton, CA (2020)
 Q-Chem 5.3.0 for Intel X86 EM64T Linux

User input:
--------------------------------------------------------------
$rem
   JOBTYPE  sp
   EXCHANGE   omegaB97X-D
   BASIS   6-311+G(2df,2pd)
   UNRESTRICTED   False
   max_scf_cycles   250
   geom_opt_max_cycles   1500
   basis2 6-31G*
   scf_algorithm rca_diis
   SYM_IGNORE  TRUE
   print_input   true
   geom_opt_dmax   80
   pop_mulliken false
   XC_GRID 000075000302
$end

$molecule
0 1
C       1.2621129583     -0.0659369905     0.2739916414
C       -0.0150281786     -0.2292222267     -0.5414647923
H       2.0547605617     -0.7112353753     -0.1100332315
H       1.0948034402     -0.3367326278     1.3184305242
H       1.6262326829     0.9616469493     0.2492841990
C       -1.2529556335     0.2405939835     0.2132067207
H       -0.1360485297     -1.2779913541     -0.8228792263
H       0.0756189411     0.3291747465     -1.4762014459
H       -1.3824718344     -0.3237413627     1.1389099510
H       -2.1578651525     0.1175300011     -0.3827097195
H       -1.1691593160     1.2959149227     0.4805103982
$end
--------------------------------------------------------------

             Standard Nuclear Orientation (Angstroms)
    I     Atom           X                Y                Z
 ----------------------------------------------------------------
    1      C       1.2621129583    -0.0659369905     0.2739916414
    2      C      -0.0150281786    -0.2292222267    -0.5414647923
    3      H       2.0547605617    -0.7112353753    -0.1100332315
    4      H       1.0948034402    -0.3367326278     1.3184305242
    5      H       1.6262326829     0.9616469493     0.2492841990
    6      C      -1.2529556335     0.2405939835     0.2132067207
    7      H      -0.1360485297    -1.2779913541    -0.8228792263
    8      H       0.0756189411     0.3291747465    -1.4762014459
    9      H      -1.3824718344    -0.3237413627     1.1389099510
   10      H      -2.1578651525     0.1175300011    -0.3827097195
   11      H      -1.1691593160     1.2959149227     0.4805103982
 ----------------------------------------------------------------

    7    -119.1017245589      4.47E-06 Convergence criterion met
    6    -119.1446727812      3.87E-06 Convergence criterion met
 Total energy in the final basis set = -119.14467278

                    Orbital Energies (a.u.)
 --------------------------------------------------------------

 Alpha MOs
 -- Occupied --
-10.2737 -10.2651 -10.2647  -0.8811  -0.7771  -0.6776  -0.5456  -0.5241
 -0.4822  -0.4650  -0.4183  -0.4172  -0.4063

                    Cartesian Multipole Moments
 -----------------------------------------------------------------
    Charge (ESU x 10^10)
                 0.0000
    Dipole Moment (Debye)
         X       0.0010      Y      -0.0317      Z      -0.0819
       Tot       0.0878
    Quadrupole Moments (Debye-Ang)
        XX     -22.1970     XY       0.0943     YY     -21.4066
        XZ      -0.0347     YZ      -0.1729     ZZ     -21.7736

 Total job time:  27.23s(wall), 74.05s(cpu)
        *  Thank you very much for using Q-Chem.  Have a nice day.  *
