 Q-Chem 5.3 (devel), Q-Chem, Inc., Pleasanton, CA (2020)
 Q-Chem 5.3.0 for Intel X86 EM64T Linux

User input:
--------------------------------------------------------------
$rem
   JOBTYPE  sp
   EXCHANGE   omegaB97X-D
   BASIS   6-311+G(2df,2pd)
   UNRESTRICTED   False
   max_scf_cycles   250
   geom_opt_max_cycles   1500
   basis2 6-31G*
   scf_algorithm rca_diis
   SYM_IGNORE  TRUE
   print_input   true
   geom_opt_dmax   80
   pop_mulliken false
   XC_GRID 000075000302
$end

$molecule
0 1
C       1.2505214171     -0.1190399160     0.3088035673
C       -0.0518275441     -0.4065458660     -0.4287249131
H       1.9564174132     0.4065450257     -0.3374522980
H       1.7281570467     -1.0462012542     0.6319310811
H       1.0842053787     0.4971046792     1.1930134961
C       -1.2159795268     0.4242049113     0.0978907480
H       -0.2932015096     -1.4685586467     -0.3414085120
H       0.0825051425     -0.2106848773     -1.4951909903
H       -1.3897611085     0.2240251100     1.1570901197
H       -2.1399022005     0.2074769886     -0.4392482335
H       -1.0111345692     1.4916745114     -0.0056590465
$end
--------------------------------------------------------------

             Standard Nuclear Orientation (Angstroms)
    I     Atom           X                Y                Z
 ----------------------------------------------------------------
    1      C       1.2505214171    -0.1190399160     0.3088035673
    2      C      -0.0518275441    -0.4065458660    -0.4287249131
    3      H       1.9564174132     0.4065450257    -0.3374522980
    4      H       1.7281570467    -1.0462012542     0.6319310811
    5      H       1.0842053787     0.4971046792     1.1930134961
    6      C      -1.2159795268     0.4242049113     0.0978907480
    7      H      -0.2932015096    -1.4685586467    -0.3414085120
    8      H       0.0825051425    -0.2106848773    -1.4951909903
    9      H      -1.3897611085     0.2240251100     1.1570901197
   10      H      -2.1399022005     0.2074769886    -0.4392482335
   11      H      -1.0111345692     1.4916745114    -0.0056590465
 ----------------------------------------------------------------

    7    -119.0980988327      4.40E-06 Convergence criterion met
    6    -119.1411845469      3.92E-06 Convergence criterion met
 Total energy in the final basis set = -119.14118455

                    Orbital Energies (a.u.)
 --------------------------------------------------------------

 Alpha MOs
 -- Occupied --
-10.2727 -10.2652 -10.2636  -0.8810  -0.7768  -0.6775  -0.5447  -0.5253
 -0.4806  -0.4676  -0.4194  -0.4157  -0.4022

                    Cartesian Multipole Moments
 -----------------------------------------------------------------
    Charge (ESU x 10^10)
                -0.0000
    Dipole Moment (Debye)
         X      -0.0012      Y      -0.0562      Z      -0.0638
       Tot       0.0850
    Quadrupole Moments (Debye-Ang)
        XX     -22.2381     XY       0.1347     YY     -21.5612
        XZ      -0.1500     YZ      -0.2497     ZZ     -21.5991

 Total job time:  27.74s(wall), 75.12s(cpu)
        *  Thank you very much for using Q-Chem.  Have a nice day.  *
