 Q-Chem 5.2 (devel), Q-Chem, Inc., Pleasanton, CA (2019)
 Q-Chem 5.2.2 for Intel X86 EM64T Linux

User input:
--------------------------------------------------------------
$rem
   JOBTYPE  sp
   EXCHANGE   omegaB97X-D
   BASIS   6-311+G(2df,2pd)
   max_scf_cycles   250
   geom_opt_max_cycles   1500
   basis2 6-31G*
   scf_algorithm rca_diis
   SYM_IGNORE  TRUE
   print_input   true
   geom_opt_dmax   80
   pop_mulliken false
   XC_GRID 000075000302
$end

$molecule
0 1
C       1.2658906478     -0.0333541820     0.2631865708
C       -0.0038078840     -0.1168114850     -0.5756349065
H       1.7202751711     -1.0191318452     0.3813736925
H       1.0484538287     0.3503263492     1.2620365899
H       2.0068349733     0.6237090409     -0.1933313856
C       -1.2636518377     0.1228684114     0.2478148457
H       -0.0615111580     -1.0980786475     -1.0526499336
H       0.0462624120     0.6141680023     -1.3861410463
H       -1.3522056206     -0.6146114135     1.0481014259
H       -2.1629461729     0.0599743706     -0.3657294002
H       -1.2435944205     1.1109420648     0.7120185664
--------------------------------------------------------------

             Standard Nuclear Orientation (Angstroms)
    I     Atom           X                Y                Z
 ----------------------------------------------------------------
    1      C       1.2658906478    -0.0333541820     0.2631865708
    2      C      -0.0038078840    -0.1168114850    -0.5756349065
    3      H       1.7202751711    -1.0191318452     0.3813736925
    4      H       1.0484538287     0.3503263492     1.2620365899
    5      H       2.0068349733     0.6237090409    -0.1933313856
    6      C      -1.2636518377     0.1228684114     0.2478148457
    7      H      -0.0615111580    -1.0980786475    -1.0526499336
    8      H       0.0462624120     0.6141680023    -1.3861410463
    9      H      -1.3522056206    -0.6146114135     1.0481014259
   10      H      -2.1629461729     0.0599743706    -0.3657294002
   11      H      -1.2435944205     1.1109420648     0.7120185664
 ----------------------------------------------------------------

    7    -119.0981408877      4.40E-06 Convergence criterion met
    6    -119.1412319470      3.94E-06 Convergence criterion met
 Total energy in the final basis set = -119.14123195

                    Orbital Energies (a.u.)
 --------------------------------------------------------------

 Alpha MOs
 -- Occupied --
-10.2727 -10.2653 -10.2636  -0.8811  -0.7768  -0.6776  -0.5448  -0.5256
 -0.4798  -0.4679  -0.4189  -0.4162  -0.4025

                    Cartesian Multipole Moments
 -----------------------------------------------------------------
    Charge (ESU x 10^10)
                -0.0000
    Dipole Moment (Debye)
         X       0.0024      Y      -0.0180      Z      -0.0810
       Tot       0.0830
    Quadrupole Moments (Debye-Ang)
        XX     -22.2530     XY       0.0647     YY     -21.3038
        XZ      -0.0684     YZ      -0.1002     ZZ     -21.8433

 Total job time:  40.25s(wall), 111.72s(cpu)
        *  Thank you very much for using Q-Chem.  Have a nice day.  *
