 Q-Chem 5.3 (devel), Q-Chem, Inc., Pleasanton, CA (2020)
 Q-Chem 5.3.0 for Intel X86 EM64T Linux

User input:
--------------------------------------------------------------
$rem
   JOBTYPE  sp
   EXCHANGE   omegaB97X-D
   BASIS   6-311+G(2df,2pd)
   UNRESTRICTED   False
   max_scf_cycles   250
   geom_opt_max_cycles   1500
   basis2 6-31G*
   scf_algorithm rca_diis
   SYM_IGNORE  TRUE
   print_input   true
   geom_opt_dmax   80
   pop_mulliken false
   XC_GRID 000075000302
$end

$molecule
0 1
C       1.1454155088     -0.5707576568     -0.1157557889
C       0.1184576802     0.5501714773     -0.2234416362
H       0.8027107494     -1.4648755710     -0.6404289588
H       1.3138733757     -0.8459516521     0.9273480141
H       2.1050857290     -0.2792320378     -0.5437374090
C       -1.2313100345     0.1634981920     0.3692907099
H       -0.0101356148     0.8269567750     -1.2725414193
H       0.4970850570     1.4411077983     0.2831454470
H       -2.0167005449     0.2087642426     -0.3878671539
H       -1.5163025638     0.8267331909     1.1866162139
H       -1.2081794028     -0.8564140924     0.7584170002
$end
--------------------------------------------------------------

             Standard Nuclear Orientation (Angstroms)
    I     Atom           X                Y                Z
 ----------------------------------------------------------------
    1      C       1.1454155088    -0.5707576568    -0.1157557889
    2      C       0.1184576802     0.5501714773    -0.2234416362
    3      H       0.8027107494    -1.4648755710    -0.6404289588
    4      H       1.3138733757    -0.8459516521     0.9273480141
    5      H       2.1050857290    -0.2792320378    -0.5437374090
    6      C      -1.2313100345     0.1634981920     0.3692907099
    7      H      -0.0101356148     0.8269567750    -1.2725414193
    8      H       0.4970850570     1.4411077983     0.2831454470
    9      H      -2.0167005449     0.2087642426    -0.3878671539
   10      H      -1.5163025638     0.8267331909     1.1866162139
   11      H      -1.2081794028    -0.8564140924     0.7584170002
 ----------------------------------------------------------------

    7    -119.0977676058      4.39E-06 Convergence criterion met
    6    -119.1408648779      3.95E-06 Convergence criterion met
 Total energy in the final basis set = -119.14086488

                    Orbital Energies (a.u.)
 --------------------------------------------------------------

 Alpha MOs
 -- Occupied --
-10.2726 -10.2653 -10.2635  -0.8811  -0.7767  -0.6776  -0.5447  -0.5256
 -0.4796  -0.4683  -0.4190  -0.4160  -0.4023

                    Cartesian Multipole Moments
 -----------------------------------------------------------------
    Charge (ESU x 10^10)
                -0.0000
    Dipole Moment (Debye)
         X       0.0119      Y       0.0742      Z      -0.0342
       Tot       0.0826
    Quadrupole Moments (Debye-Ang)
        XX     -22.1964     XY       0.1215     YY     -21.7869
        XZ       0.2435     YZ       0.1677     ZZ     -21.4171

 Total job time:  27.10s(wall), 73.28s(cpu)
        *  Thank you very much for using Q-Chem.  Have a nice day.  *
