 Q-Chem 5.2 (devel), Q-Chem, Inc., Pleasanton, CA (2019)
 Q-Chem 5.2.2 for Intel X86 EM64T Linux

User input:
--------------------------------------------------------------
$rem
   JOBTYPE  sp
   EXCHANGE   omegaB97X-D
   BASIS   6-311+G(2df,2pd)
   max_scf_cycles   250
   geom_opt_max_cycles   1500
   basis2 6-31G*
   scf_algorithm rca_diis
   SYM_IGNORE  TRUE
   print_input   true
   geom_opt_dmax   80
   pop_mulliken false
   XC_GRID 000075000302
$end

$molecule
0 1
C       1.2369304056     -0.1543899744     0.3515318409
C       -0.0985422018     -0.5208558543     -0.2848153363
H       1.3714465516     0.9288723506     0.3785337925
H       2.0683008313     -0.5748512978     -0.2179530738
H       1.3103964872     -0.5259873170     1.3741470297
C       -1.1666776011     0.5409275478     -0.0514992916
H       -0.4424060898     -1.4776673031     0.1152299053
H       0.0382541447     -0.6703025998     -1.3584629267
H       -1.3432625986     0.6879860122     1.0159167447
H       -2.1155731647     0.2646439175     -0.5123546917
H       -0.8588668250     1.5016251843     -0.4692289741
--------------------------------------------------------------

             Standard Nuclear Orientation (Angstroms)
    I     Atom           X                Y                Z
 ----------------------------------------------------------------
    1      C       1.2369304056    -0.1543899744     0.3515318409
    2      C      -0.0985422018    -0.5208558543    -0.2848153363
    3      H       1.3714465516     0.9288723506     0.3785337925
    4      H       2.0683008313    -0.5748512978    -0.2179530738
    5      H       1.3103964872    -0.5259873170     1.3741470297
    6      C      -1.1666776011     0.5409275478    -0.0514992916
    7      H      -0.4424060898    -1.4776673031     0.1152299053
    8      H       0.0382541447    -0.6703025998    -1.3584629267
    9      H      -1.3432625986     0.6879860122     1.0159167447
   10      H      -2.1155731647     0.2646439175    -0.5123546917
   11      H      -0.8588668250     1.5016251843    -0.4692289741
 ----------------------------------------------------------------

    7    -119.1004343055      4.45E-06 Convergence criterion met
    6    -119.1434428335      3.89E-06 Convergence criterion met
 Total energy in the final basis set = -119.14344283

                    Orbital Energies (a.u.)
 --------------------------------------------------------------

 Alpha MOs
 -- Occupied --
-10.2733 -10.2651 -10.2643  -0.8811  -0.7769  -0.6776  -0.5453  -0.5246
 -0.4814  -0.4659  -0.4186  -0.4168  -0.4049

                    Cartesian Multipole Moments
 -----------------------------------------------------------------
    Charge (ESU x 10^10)
                -0.0000
    Dipole Moment (Debye)
         X      -0.0115      Y      -0.0747      Z      -0.0427
       Tot       0.0868
    Quadrupole Moments (Debye-Ang)
        XX     -22.1523     XY       0.1537     YY     -21.7495
        XZ      -0.2002     YZ      -0.1936     ZZ     -21.4810

 Total job time:  40.22s(wall), 111.50s(cpu)
        *  Thank you very much for using Q-Chem.  Have a nice day.  *
