 Q-Chem 5.3 (devel), Q-Chem, Inc., Pleasanton, CA (2020)
 Q-Chem 5.3.0 for Intel X86 EM64T Linux

User input:
--------------------------------------------------------------
$rem
   JOBTYPE  sp
   EXCHANGE   omegaB97X-D
   BASIS   6-311+G(2df,2pd)
   UNRESTRICTED   False
   max_scf_cycles   250
   geom_opt_max_cycles   1500
   basis2 6-31G*
   scf_algorithm rca_diis
   SYM_IGNORE  TRUE
   print_input   true
   geom_opt_dmax   80
   pop_mulliken false
   XC_GRID 000075000302
$end

$molecule
0 1
C       1.2638967990     -0.0530557518     0.2688525600
C       -0.0096803464     -0.1850671916     -0.5577640269
H       1.9454635945     -0.8824685471     0.0695626955
H       1.0378441286     -0.0626782760     1.3370205847
H       1.7925456793     0.8746326998     0.0473872511
C       -1.2580945473     0.1944428131     0.2297351074
H       -0.1048417175     -1.2118375263     -0.9189339105
H       0.0659908683     0.4455014348     -1.4468161998
H       -1.3724847741     -0.4423205484     1.1092932904
H       -2.1603152535     0.0949530391     -0.3746008648
H       -1.2003244914     1.2278985205     0.5773085317
$end
--------------------------------------------------------------

             Standard Nuclear Orientation (Angstroms)
    I     Atom           X                Y                Z
 ----------------------------------------------------------------
    1      C       1.2638967990    -0.0530557518     0.2688525600
    2      C      -0.0096803464    -0.1850671916    -0.5577640269
    3      H       1.9454635945    -0.8824685471     0.0695626955
    4      H       1.0378441286    -0.0626782760     1.3370205847
    5      H       1.7925456793     0.8746326998     0.0473872511
    6      C      -1.2580945473     0.1944428131     0.2297351074
    7      H      -0.1048417175    -1.2118375263    -0.9189339105
    8      H       0.0659908683     0.4455014348    -1.4468161998
    9      H      -1.3724847741    -0.4423205484     1.1092932904
   10      H      -2.1603152535     0.0949530391    -0.3746008648
   11      H      -1.2003244914     1.2278985205     0.5773085317
 ----------------------------------------------------------------

    7    -119.0991097979      4.43E-06 Convergence criterion met
    6    -119.1421677307      3.92E-06 Convergence criterion met
 Total energy in the final basis set = -119.14216773

                    Orbital Energies (a.u.)
 --------------------------------------------------------------

 Alpha MOs
 -- Occupied --
-10.2730 -10.2652 -10.2639  -0.8811  -0.7768  -0.6776  -0.5450  -0.5251
 -0.4806  -0.4670  -0.4188  -0.4163  -0.4036

                    Cartesian Multipole Moments
 -----------------------------------------------------------------
    Charge (ESU x 10^10)
                 0.0000
    Dipole Moment (Debye)
         X       0.0021      Y      -0.0251      Z      -0.0813
       Tot       0.0852
    Quadrupole Moments (Debye-Ang)
        XX     -22.2419     XY       0.0744     YY     -21.3468
        XZ      -0.0601     YZ      -0.1605     ZZ     -21.8047

 Total job time:  25.17s(wall), 70.17s(cpu)
        *  Thank you very much for using Q-Chem.  Have a nice day.  *
