 Q-Chem 5.2 (devel), Q-Chem, Inc., Pleasanton, CA (2019)
 Q-Chem 5.2.2 for Intel X86 EM64T Linux

User input:
--------------------------------------------------------------
$rem
   JOBTYPE  sp
   EXCHANGE   omegaB97X-D
   BASIS   6-311+G(2df,2pd)
   max_scf_cycles   250
   geom_opt_max_cycles   1500
   basis2 6-31G*
   scf_algorithm rca_diis
   SYM_IGNORE  TRUE
   print_input   true
   geom_opt_dmax   80
   pop_mulliken false
   XC_GRID 000075000302
$end

$molecule
0 1
C       1.2422889818     -0.1428650081     0.3345757898
C       -0.0797907554     -0.4837967133     -0.3426188995
H       1.5911084706     0.8466786745     0.0322555640
H       2.0169316573     -0.8622347480     0.0612611547
H       1.1502775681     -0.1473477388     1.4211880245
C       -1.1866349798     0.5032007154     0.0087556222
H       -0.3865500421     -1.4924877322     -0.0559017416
H       0.0602566394     -0.5036603780     -1.4260198984
H       -1.3663660665     0.5199121703     1.0856036807
H       -2.1254345937     0.2461771811     -0.4828918497
H       -0.9160869403     1.5164242429     -0.2951624276
--------------------------------------------------------------

             Standard Nuclear Orientation (Angstroms)
    I     Atom           X                Y                Z
 ----------------------------------------------------------------
    1      C       1.2422889818    -0.1428650081     0.3345757898
    2      C      -0.0797907554    -0.4837967133    -0.3426188995
    3      H       1.5911084706     0.8466786745     0.0322555640
    4      H       2.0169316573    -0.8622347480     0.0612611547
    5      H       1.1502775681    -0.1473477388     1.4211880245
    6      C      -1.1866349798     0.5032007154     0.0087556222
    7      H      -0.3865500421    -1.4924877322    -0.0559017416
    8      H       0.0602566394    -0.5036603780    -1.4260198984
    9      H      -1.3663660665     0.5199121703     1.0856036807
   10      H      -2.1254345937     0.2461771811    -0.4828918497
   11      H      -0.9160869403     1.5164242429    -0.2951624276
 ----------------------------------------------------------------

    7    -119.1030546741      4.49E-06 Convergence criterion met
    6    -119.1459456938      3.85E-06 Convergence criterion met
 Total energy in the final basis set = -119.14594569

                    Orbital Energies (a.u.)
 --------------------------------------------------------------

 Alpha MOs
 -- Occupied --
-10.2740 -10.2651 -10.2650  -0.8811  -0.7772  -0.6776  -0.5458  -0.5237
 -0.4829  -0.4640  -0.4181  -0.4175  -0.4077

                    Cartesian Multipole Moments
 -----------------------------------------------------------------
    Charge (ESU x 10^10)
                -0.0000
    Dipole Moment (Debye)
         X      -0.0080      Y      -0.0691      Z      -0.0540
       Tot       0.0881
    Quadrupole Moments (Debye-Ang)
        XX     -22.1314     XY       0.1606     YY     -21.7113
        XZ      -0.1325     YZ      -0.1986     ZZ     -21.5278

 Total job time:  40.58s(wall), 113.05s(cpu)
        *  Thank you very much for using Q-Chem.  Have a nice day.  *
