 Q-Chem 5.3 (devel), Q-Chem, Inc., Pleasanton, CA (2020)
 Q-Chem 5.3.0 for Intel X86 EM64T Linux

User input:
--------------------------------------------------------------
$rem
   JOBTYPE  sp
   EXCHANGE   omegaB97X-D
   BASIS   6-311+G(2df,2pd)
   UNRESTRICTED   False
   max_scf_cycles   250
   geom_opt_max_cycles   1500
   basis2 6-31G*
   scf_algorithm rca_diis
   SYM_IGNORE  TRUE
   print_input   true
   geom_opt_dmax   80
   pop_mulliken false
   XC_GRID 000075000302
$end

$molecule
0 1
C       1.2332116953     -0.1607425880     0.3632932776
C       -0.1117035351     -0.5412875057     -0.2442504130
H       1.2540569739     0.8974061317     0.6317371135
H       2.0446923343     -0.3360522064     -0.3458900851
H       1.4454710875     -0.7382574963     1.2635959301
C       -1.1526258010     0.5617124888     -0.0939420768
H       -0.4790323539     -1.4556870095     0.2276603602
H       0.0201658281     -0.7759757237     -1.3031595700
H       -1.3243377495     0.7945407267     0.9589023174
H       -2.1086385801     0.2748094344     -0.5330873699
H       -0.8212599601     1.4795344140     -0.5838144650
$end
--------------------------------------------------------------

             Standard Nuclear Orientation (Angstroms)
    I     Atom           X                Y                Z
 ----------------------------------------------------------------
    1      C       1.2332116953    -0.1607425880     0.3632932776
    2      C      -0.1117035351    -0.5412875057    -0.2442504130
    3      H       1.2540569739     0.8974061317     0.6317371135
    4      H       2.0446923343    -0.3360522064    -0.3458900851
    5      H       1.4454710875    -0.7382574963     1.2635959301
    6      C      -1.1526258010     0.5617124888    -0.0939420768
    7      H      -0.4790323539    -1.4556870095     0.2276603602
    8      H       0.0201658281    -0.7759757237    -1.3031595700
    9      H      -1.3243377495     0.7945407267     0.9589023174
   10      H      -2.1086385801     0.2748094344    -0.5330873699
   11      H      -0.8212599601     1.4795344140    -0.5838144650
 ----------------------------------------------------------------

    7    -119.0981376058      4.40E-06 Convergence criterion met
    6    -119.1412282585      3.94E-06 Convergence criterion met
 Total energy in the final basis set = -119.14122826

                    Orbital Energies (a.u.)
 --------------------------------------------------------------

 Alpha MOs
 -- Occupied --
-10.2727 -10.2653 -10.2636  -0.8811  -0.7768  -0.6776  -0.5448  -0.5254
 -0.4799  -0.4680  -0.4189  -0.4160  -0.4026

                    Cartesian Multipole Moments
 -----------------------------------------------------------------
    Charge (ESU x 10^10)
                -0.0000
    Dipole Moment (Debye)
         X      -0.0114      Y      -0.0742      Z      -0.0365
       Tot       0.0835
    Quadrupole Moments (Debye-Ang)
        XX     -22.1897     XY       0.1323     YY     -21.7720
        XZ      -0.2384     YZ      -0.1821     ZZ     -21.4362

 Total job time:  27.63s(wall), 75.07s(cpu)
        *  Thank you very much for using Q-Chem.  Have a nice day.  *
