 Q-Chem 5.3 (devel), Q-Chem, Inc., Pleasanton, CA (2020)
 Q-Chem 5.3.0 for Intel X86 EM64T Linux

User input:
--------------------------------------------------------------
$rem
   JOBTYPE  sp
   EXCHANGE   omegaB97X-D
   BASIS   6-311+G(2df,2pd)
   UNRESTRICTED   False
   max_scf_cycles   250
   geom_opt_max_cycles   1500
   basis2 6-31G*
   scf_algorithm rca_diis
   SYM_IGNORE  TRUE
   print_input   true
   geom_opt_dmax   80
   pop_mulliken false
   XC_GRID 000075000302
$end

$molecule
0 1
C       1.2105595384     -0.4415068763     0.0813333156
C       0.0570477070     0.4234171439     -0.4126683456
H       0.9923266418     -1.5015550776     -0.0630534755
H       1.3866417197     -0.2843316712     1.1473850743
H       2.1372377193     -0.2159548948     -0.4473596366
C       -1.2489551586     0.1242118249     0.3136603951
H       -0.0795330498     0.2703401622     -1.4858271530
H       0.3117411568     1.4781768039     -0.2847230536
H       -1.8013108880     1.0438790321     0.5168614682
H       -1.0735930431     -0.3777013633     1.2657389974
H       -1.8921624042     -0.5189744179     -0.2903025674
$end
--------------------------------------------------------------

             Standard Nuclear Orientation (Angstroms)
    I     Atom           X                Y                Z
 ----------------------------------------------------------------
    1      C       1.2105595384    -0.4415068763     0.0813333156
    2      C       0.0570477070     0.4234171439    -0.4126683456
    3      H       0.9923266418    -1.5015550776    -0.0630534755
    4      H       1.3866417197    -0.2843316712     1.1473850743
    5      H       2.1372377193    -0.2159548948    -0.4473596366
    6      C      -1.2489551586     0.1242118249     0.3136603951
    7      H      -0.0795330498     0.2703401622    -1.4858271530
    8      H       0.3117411568     1.4781768039    -0.2847230536
    9      H      -1.8013108880     1.0438790321     0.5168614682
   10      H      -1.0735930431    -0.3777013633     1.2657389974
   11      H      -1.8921624042    -0.5189744179    -0.2903025674
 ----------------------------------------------------------------

    7    -119.0990843913      4.42E-06 Convergence criterion met
    6    -119.1421409005      3.90E-06 Convergence criterion met
 Total energy in the final basis set = -119.14214090

                    Orbital Energies (a.u.)
 --------------------------------------------------------------

 Alpha MOs
 -- Occupied --
-10.2730 -10.2652 -10.2639  -0.8810  -0.7769  -0.6775  -0.5449  -0.5249
 -0.4811  -0.4668  -0.4193  -0.4161  -0.4032

                    Cartesian Multipole Moments
 -----------------------------------------------------------------
    Charge (ESU x 10^10)
                 0.0000
    Dipole Moment (Debye)
         X       0.0026      Y       0.0582      Z      -0.0634
       Tot       0.0861
    Quadrupole Moments (Debye-Ang)
        XX     -22.2189     XY       0.1349     YY     -21.5966
        XZ       0.1428     YZ       0.2448     ZZ     -21.5760

 Total job time:  28.13s(wall), 76.22s(cpu)
        *  Thank you very much for using Q-Chem.  Have a nice day.  *
