 Q-Chem 5.3 (devel), Q-Chem, Inc., Pleasanton, CA (2020)
 Q-Chem 5.3.0 for Intel X86 EM64T Linux

User input:
--------------------------------------------------------------
$rem
   JOBTYPE  sp
   EXCHANGE   omegaB97X-D
   BASIS   6-311+G(2df,2pd)
   UNRESTRICTED   False
   max_scf_cycles   250
   geom_opt_max_cycles   1500
   basis2 6-31G*
   scf_algorithm rca_diis
   SYM_IGNORE  TRUE
   print_input   true
   geom_opt_dmax   80
   pop_mulliken false
   XC_GRID 000075000302
$end

$molecule
0 1
C       1.1990251513     -0.4739019431     0.0462606138
C       0.0680638057     0.4550817581     -0.3787528740
H       0.9543419885     -1.5139322885     -0.1787779660
H       1.3780486909     -0.4034307326     1.1210441792
H       2.1315534475     -0.2318261099     -0.4645354833
C       -1.2456976053     0.1339681131     0.3238406993
H       -0.0713614227     0.3882476947     -1.4603491504
H       0.3490777514     1.4901854865     -0.1705507478
H       -1.9272680652     0.9860527287     0.2839807453
H       -1.0890508070     -0.1200198800     1.3726849514
H       -1.7467329958     -0.7104241610     -0.1537999486
$end
--------------------------------------------------------------

             Standard Nuclear Orientation (Angstroms)
    I     Atom           X                Y                Z
 ----------------------------------------------------------------
    1      C       1.1990251513    -0.4739019431     0.0462606138
    2      C       0.0680638057     0.4550817581    -0.3787528740
    3      H       0.9543419885    -1.5139322885    -0.1787779660
    4      H       1.3780486909    -0.4034307326     1.1210441792
    5      H       2.1315534475    -0.2318261099    -0.4645354833
    6      C      -1.2456976053     0.1339681131     0.3238406993
    7      H      -0.0713614227     0.3882476947    -1.4603491504
    8      H       0.3490777514     1.4901854865    -0.1705507478
    9      H      -1.9272680652     0.9860527287     0.2839807453
   10      H      -1.0890508070    -0.1200198800     1.3726849514
   11      H      -1.7467329958    -0.7104241610    -0.1537999486
 ----------------------------------------------------------------

    7    -119.1017402774      4.47E-06 Convergence criterion met
    6    -119.1446952365      3.86E-06 Convergence criterion met
 Total energy in the final basis set = -119.14469524

                    Orbital Energies (a.u.)
 --------------------------------------------------------------

 Alpha MOs
 -- Occupied --
-10.2737 -10.2650 -10.2647  -0.8811  -0.7771  -0.6776  -0.5455  -0.5241
 -0.4824  -0.4648  -0.4187  -0.4171  -0.4060

                    Cartesian Multipole Moments
 -----------------------------------------------------------------
    Charge (ESU x 10^10)
                 0.0000
    Dipole Moment (Debye)
         X       0.0052      Y       0.0633      Z      -0.0610
       Tot       0.0881
    Quadrupole Moments (Debye-Ang)
        XX     -22.1650     XY       0.1465     YY     -21.6636
        XZ       0.1253     YZ       0.2210     ZZ     -21.5469

 Total job time:  27.24s(wall), 74.11s(cpu)
        *  Thank you very much for using Q-Chem.  Have a nice day.  *
