 Q-Chem 5.3 (devel), Q-Chem, Inc., Pleasanton, CA (2020)
 Q-Chem 5.3.0 for Intel X86 EM64T Linux

User input:
--------------------------------------------------------------
$rem
   JOBTYPE  sp
   EXCHANGE   omegaB97X-D
   BASIS   6-311+G(2df,2pd)
   UNRESTRICTED   False
   max_scf_cycles   250
   geom_opt_max_cycles   1500
   basis2 6-31G*
   scf_algorithm rca_diis
   SYM_IGNORE  TRUE
   print_input   true
   geom_opt_dmax   80
   pop_mulliken false
   XC_GRID 000075000302
$end

$molecule
0 1
C       1.2549323786     -0.1025011429     0.2952962429
C       -0.0374247407     -0.3521422839     -0.4729570514
H       2.0960770308     0.0267734080     -0.3887644974
H       1.4889554499     -0.9455574245     0.9484919562
H       1.1876793895     0.7920865296     0.9152255265
C       -1.2307401583     0.3682068066     0.1433352893
H       -0.2384930333     -1.4254772379     -0.5087384694
H       0.0869302041     -0.0301185088     -1.5095829374
H       -1.3943707866     0.0412468875     1.1721683800
H       -2.1471273525     0.1800339093     -0.4169752104
H       -1.0664184422     1.4474497232     0.1635457900
$end
--------------------------------------------------------------

             Standard Nuclear Orientation (Angstroms)
    I     Atom           X                Y                Z
 ----------------------------------------------------------------
    1      C       1.2549323786    -0.1025011429     0.2952962429
    2      C      -0.0374247407    -0.3521422839    -0.4729570514
    3      H       2.0960770308     0.0267734080    -0.3887644974
    4      H       1.4889554499    -0.9455574245     0.9484919562
    5      H       1.1876793895     0.7920865296     0.9152255265
    6      C      -1.2307401583     0.3682068066     0.1433352893
    7      H      -0.2384930333    -1.4254772379    -0.5087384694
    8      H       0.0869302041    -0.0301185088    -1.5095829374
    9      H      -1.3943707866     0.0412468875     1.1721683800
   10      H      -2.1471273525     0.1800339093    -0.4169752104
   11      H      -1.0664184422     1.4474497232     0.1635457900
 ----------------------------------------------------------------

    7    -119.0990777936      4.42E-06 Convergence criterion met
    6    -119.1421314055      3.90E-06 Convergence criterion met
 Total energy in the final basis set = -119.14213141

                    Orbital Energies (a.u.)
 --------------------------------------------------------------

 Alpha MOs
 -- Occupied --
-10.2730 -10.2652 -10.2639  -0.8810  -0.7769  -0.6775  -0.5449  -0.5249
 -0.4811  -0.4668  -0.4193  -0.4161  -0.4032

                    Cartesian Multipole Moments
 -----------------------------------------------------------------
    Charge (ESU x 10^10)
                 0.0000
    Dipole Moment (Debye)
         X      -0.0010      Y      -0.0523      Z      -0.0684
       Tot       0.0861
    Quadrupole Moments (Debye-Ang)
        XX     -22.2214     XY       0.1455     YY     -21.4875
        XZ      -0.1215     YZ      -0.2278     ZZ     -21.6829

 Total job time:  27.65s(wall), 75.00s(cpu)
        *  Thank you very much for using Q-Chem.  Have a nice day.  *
