 Q-Chem 5.3 (devel), Q-Chem, Inc., Pleasanton, CA (2020)
 Q-Chem 5.3.0 for Intel X86 EM64T Linux

User input:
--------------------------------------------------------------
$rem
   JOBTYPE  sp
   EXCHANGE   omegaB97X-D
   BASIS   6-311+G(2df,2pd)
   UNRESTRICTED   False
   max_scf_cycles   250
   geom_opt_max_cycles   1500
   basis2 6-31G*
   scf_algorithm rca_diis
   SYM_IGNORE  TRUE
   print_input   true
   geom_opt_dmax   80
   pop_mulliken false
   XC_GRID 000075000302
$end

$molecule
0 1
C       1.2351358331     -0.3482751407     0.1569949749
C       0.0330717352     0.3328509641     -0.4863011319
H       1.0843612122     -1.4279235909     0.2186518444
H       1.3943257680     0.0199692149     1.1724899236
H       2.1492674532     -0.1702660507     -0.4102779137
C       -1.2562946980     0.0966893154     0.2911836743
H       -0.0869051298     -0.0302675419     -1.5097791209
H       0.2206690340     1.4064596590     -0.5632966861
H       -1.4090958202     0.8776910248     1.0387553744
H       -1.2437831457     -0.8632501332     0.8083703922
H       -2.1207523025     0.1063229452     -0.3757463123
$end
--------------------------------------------------------------

             Standard Nuclear Orientation (Angstroms)
    I     Atom           X                Y                Z
 ----------------------------------------------------------------
    1      C       1.2351358331    -0.3482751407     0.1569949749
    2      C       0.0330717352     0.3328509641    -0.4863011319
    3      H       1.0843612122    -1.4279235909     0.2186518444
    4      H       1.3943257680     0.0199692149     1.1724899236
    5      H       2.1492674532    -0.1702660507    -0.4102779137
    6      C      -1.2562946980     0.0966893154     0.2911836743
    7      H      -0.0869051298    -0.0302675419    -1.5097791209
    8      H       0.2206690340     1.4064596590    -0.5632966861
    9      H      -1.4090958202     0.8776910248     1.0387553744
   10      H      -1.2437831457    -0.8632501332     0.8083703922
   11      H      -2.1207523025     0.1063229452    -0.3757463123
 ----------------------------------------------------------------

    7    -119.1004149049      4.45E-06 Convergence criterion met
    6    -119.1434219601      3.88E-06 Convergence criterion met
 Total energy in the final basis set = -119.14342196

                    Orbital Energies (a.u.)
 --------------------------------------------------------------

 Alpha MOs
 -- Occupied --
-10.2733 -10.2651 -10.2643  -0.8810  -0.7770  -0.6776  -0.5452  -0.5245
 -0.4818  -0.4657  -0.4190  -0.4166  -0.4045

                    Cartesian Multipole Moments
 -----------------------------------------------------------------
    Charge (ESU x 10^10)
                -0.0000
    Dipole Moment (Debye)
         X       0.0013      Y       0.0510      Z      -0.0711
       Tot       0.0875
    Quadrupole Moments (Debye-Ang)
        XX     -22.2003     XY       0.1452     YY     -21.4779
        XZ       0.0965     YZ       0.2132     ZZ     -21.7050

 Total job time:  28.13s(wall), 76.14s(cpu)
        *  Thank you very much for using Q-Chem.  Have a nice day.  *
