 Q-Chem 5.3 (devel), Q-Chem, Inc., Pleasanton, CA (2020)
 Q-Chem 5.3.0 for Intel X86 EM64T Linux

User input:
--------------------------------------------------------------
$rem
   JOBTYPE  sp
   EXCHANGE   omegaB97X-D
   BASIS   6-311+G(2df,2pd)
   UNRESTRICTED   False
   max_scf_cycles   250
   geom_opt_max_cycles   1500
   basis2 6-31G*
   scf_algorithm rca_diis
   SYM_IGNORE  TRUE
   print_input   true
   geom_opt_dmax   80
   pop_mulliken false
   XC_GRID 000075000302
$end

$molecule
0 1
C       1.1307070961     -0.5860749453     -0.1603729043
C       0.1322584456     0.5651842828     -0.1809454405
H       0.7663073946     -1.4284578025     -0.7517943372
H       1.2910587473     -0.9445846631     0.8584172909
H       2.0978523492     -0.2867189141     -0.5655128940
C       -1.2274277835     0.1681285247     0.3814786263
H       0.0118053715     0.9247413092     -1.2056241673
H       0.5325099788     1.4048830153     0.3921701153
H       -1.9329306950     -0.0504954272     -0.4226634690
H       -1.6556245344     0.9611002902     0.9954539570
H       -1.1465164309     -0.7277050041     1.0004382416
$end
--------------------------------------------------------------

             Standard Nuclear Orientation (Angstroms)
    I     Atom           X                Y                Z
 ----------------------------------------------------------------
    1      C       1.1307070961    -0.5860749453    -0.1603729043
    2      C       0.1322584456     0.5651842828    -0.1809454405
    3      H       0.7663073946    -1.4284578025    -0.7517943372
    4      H       1.2910587473    -0.9445846631     0.8584172909
    5      H       2.0978523492    -0.2867189141    -0.5655128940
    6      C      -1.2274277835     0.1681285247     0.3814786263
    7      H       0.0118053715     0.9247413092    -1.2056241673
    8      H       0.5325099788     1.4048830153     0.3921701153
    9      H      -1.9329306950    -0.0504954272    -0.4226634690
   10      H      -1.6556245344     0.9611002902     0.9954539570
   11      H      -1.1465164309    -0.7277050041     1.0004382416
 ----------------------------------------------------------------

    7    -119.0990933300      4.41E-06 Convergence criterion met
    6    -119.1421445140      3.93E-06 Convergence criterion met
 Total energy in the final basis set = -119.14214451

                    Orbital Energies (a.u.)
 --------------------------------------------------------------

 Alpha MOs
 -- Occupied --
-10.2730 -10.2653 -10.2639  -0.8811  -0.7768  -0.6776  -0.5450  -0.5253
 -0.4805  -0.4669  -0.4188  -0.4167  -0.4034

                    Cartesian Multipole Moments
 -----------------------------------------------------------------
    Charge (ESU x 10^10)
                 0.0000
    Dipole Moment (Debye)
         X       0.0154      Y       0.0764      Z      -0.0310
       Tot       0.0839
    Quadrupole Moments (Debye-Ang)
        XX     -22.1672     XY       0.1092     YY     -21.8205
        XZ       0.2287     YZ       0.1242     ZZ     -21.4016

 Total job time:  27.26s(wall), 73.95s(cpu)
        *  Thank you very much for using Q-Chem.  Have a nice day.  *
