 Q-Chem 5.3 (devel), Q-Chem, Inc., Pleasanton, CA (2020)
 Q-Chem 5.3.0 for Intel X86 EM64T Linux

User input:
--------------------------------------------------------------
$rem
   JOBTYPE  sp
   EXCHANGE   omegaB97X-D
   BASIS   6-311+G(2df,2pd)
   UNRESTRICTED   False
   max_scf_cycles   250
   geom_opt_max_cycles   1500
   basis2 6-31G*
   scf_algorithm rca_diis
   SYM_IGNORE  TRUE
   print_input   true
   geom_opt_dmax   80
   pop_mulliken false
   XC_GRID 000075000302
$end

$molecule
0 1
C       1.2535135062     -0.1081720217     0.2996108106
C       -0.0420073617     -0.3708769214     -0.4588959880
H       2.0597476487     0.1582053779     -0.3868328655
H       1.5700732333     -0.9967380965     0.8495340794
H       1.1417800333     0.7062279213     1.0161237198
C       -1.2260777643     0.3875259862     0.1289161067
H       -0.2565446719     -1.4421851962     -0.4535094824
H       0.0862053257     -0.0904732194     -1.5070810681
H       -1.3936263509     0.1023841148     1.1694913727
H       -2.1448510687     0.1895017268     -0.4240435598
H       -1.0482125904     1.4646009942     0.1077318934
$end
--------------------------------------------------------------

             Standard Nuclear Orientation (Angstroms)
    I     Atom           X                Y                Z
 ----------------------------------------------------------------
    1      C       1.2535135062    -0.1081720217     0.2996108106
    2      C      -0.0420073617    -0.3708769214    -0.4588959880
    3      H       2.0597476487     0.1582053779    -0.3868328655
    4      H       1.5700732333    -0.9967380965     0.8495340794
    5      H       1.1417800333     0.7062279213     1.0161237198
    6      C      -1.2260777643     0.3875259862     0.1289161067
    7      H      -0.2565446719    -1.4421851962    -0.4535094824
    8      H       0.0862053257    -0.0904732194    -1.5070810681
    9      H      -1.3936263509     0.1023841148     1.1694913727
   10      H      -2.1448510687     0.1895017268    -0.4240435598
   11      H      -1.0482125904     1.4646009942     0.1077318934
 ----------------------------------------------------------------

    7    -119.0981013190      4.40E-06 Convergence criterion met
    6    -119.1411875044      3.92E-06 Convergence criterion met
 Total energy in the final basis set = -119.14118750

                    Orbital Energies (a.u.)
 --------------------------------------------------------------

 Alpha MOs
 -- Occupied --
-10.2727 -10.2652 -10.2636  -0.8810  -0.7768  -0.6775  -0.5447  -0.5253
 -0.4806  -0.4676  -0.4194  -0.4157  -0.4022

                    Cartesian Multipole Moments
 -----------------------------------------------------------------
    Charge (ESU x 10^10)
                -0.0000
    Dipole Moment (Debye)
         X      -0.0004      Y      -0.0532      Z      -0.0662
       Tot       0.0850
    Quadrupole Moments (Debye-Ang)
        XX     -22.2382     XY       0.1424     YY     -21.5043
        XZ      -0.1405     YZ      -0.2401     ZZ     -21.6561

 Total job time:  27.99s(wall), 75.78s(cpu)
        *  Thank you very much for using Q-Chem.  Have a nice day.  *
