 Q-Chem 5.3 (devel), Q-Chem, Inc., Pleasanton, CA (2020)
 Q-Chem 5.3.0 for Intel X86 EM64T Linux

User input:
--------------------------------------------------------------
$rem
   JOBTYPE  sp
   EXCHANGE   omegaB97X-D
   BASIS   6-311+G(2df,2pd)
   UNRESTRICTED   False
   max_scf_cycles   250
   geom_opt_max_cycles   1500
   basis2 6-31G*
   scf_algorithm rca_diis
   SYM_IGNORE  TRUE
   print_input   true
   geom_opt_dmax   80
   pop_mulliken false
   XC_GRID 000075000302
$end

$molecule
0 1
C       1.2556685163     -0.2177010205     0.2219109051
C       0.0122143474     0.2073030270     -0.5500437806
H       1.1849609388     -1.2629421986     0.5295578616
H       1.3778411293     0.3833386590     1.1252383586
H       2.1591605753     -0.1063280007     -0.3784394383
C       -1.2630478322     0.0595275943     0.2712902209
H       -0.0711635047     -0.3876649310     -1.4626323814
H       0.1202292046     1.2459204221     -0.8715455516
H       -1.0602315714     0.2015317266     1.3347166127
H       -1.7104340946     -0.9269043074     0.1451156577
H       -2.0051977695     0.8039196952     -0.0241234457
$end
--------------------------------------------------------------

             Standard Nuclear Orientation (Angstroms)
    I     Atom           X                Y                Z
 ----------------------------------------------------------------
    1      C       1.2556685163    -0.2177010205     0.2219109051
    2      C       0.0122143474     0.2073030270    -0.5500437806
    3      H       1.1849609388    -1.2629421986     0.5295578616
    4      H       1.3778411293     0.3833386590     1.1252383586
    5      H       2.1591605753    -0.1063280007    -0.3784394383
    6      C      -1.2630478322     0.0595275943     0.2712902209
    7      H      -0.0711635047    -0.3876649310    -1.4626323814
    8      H       0.1202292046     1.2459204221    -0.8715455516
    9      H      -1.0602315714     0.2015317266     1.3347166127
   10      H      -1.7104340946    -0.9269043074     0.1451156577
   11      H      -2.0051977695     0.8039196952    -0.0241234457
 ----------------------------------------------------------------

    7    -119.1004164705      4.45E-06 Convergence criterion met
    6    -119.1434224334      3.89E-06 Convergence criterion met
 Total energy in the final basis set = -119.14342243

                    Orbital Energies (a.u.)
 --------------------------------------------------------------

 Alpha MOs
 -- Occupied --
-10.2733 -10.2651 -10.2643  -0.8811  -0.7769  -0.6776  -0.5453  -0.5246
 -0.4814  -0.4659  -0.4186  -0.4168  -0.4049

                    Cartesian Multipole Moments
 -----------------------------------------------------------------
    Charge (ESU x 10^10)
                -0.0000
    Dipole Moment (Debye)
         X      -0.0014      Y       0.0280      Z      -0.0821
       Tot       0.0867
    Quadrupole Moments (Debye-Ang)
        XX     -22.2195     XY       0.0828     YY     -21.3763
        XZ       0.0464     YZ       0.1692     ZZ     -21.7889

 Total job time:  28.63s(wall), 76.75s(cpu)
        *  Thank you very much for using Q-Chem.  Have a nice day.  *
