 Q-Chem 5.2 (devel), Q-Chem, Inc., Pleasanton, CA (2019)
 Q-Chem 5.2.2 for Intel X86 EM64T Linux

User input:
--------------------------------------------------------------
$rem
   JOBTYPE  sp
   EXCHANGE   omegaB97X-D
   BASIS   6-311+G(2df,2pd)
   max_scf_cycles   250
   geom_opt_max_cycles   1500
   basis2 6-31G*
   scf_algorithm rca_diis
   SYM_IGNORE  TRUE
   print_input   true
   geom_opt_dmax   80
   pop_mulliken false
   XC_GRID 000075000302
$end

$molecule
0 1
C       1.1597138318     -0.5517727073     -0.0725238234
C       0.1050656992     0.5315170650     -0.2647077775
H       0.8399776670     -1.4917897366     -0.5267513334
H       1.3341367723     -0.7418915809     0.9884273130
H       2.1121350579     -0.2699494839     -0.5226267469
C       -1.2350841333     0.1577073948     0.3573749040
H       -0.0295400263     0.7237615792     -1.3318021700
H       0.4608082489     1.4678768139     0.1716919877
H       -2.0621303555     0.4588593992     -0.2888322475
H       -1.3762164042     0.6374417411     1.3264797029
H       -1.3088664183     -0.9217598185     0.5043152100
--------------------------------------------------------------

             Standard Nuclear Orientation (Angstroms)
    I     Atom           X                Y                Z
 ----------------------------------------------------------------
    1      C       1.1597138318    -0.5517727073    -0.0725238234
    2      C       0.1050656992     0.5315170650    -0.2647077775
    3      H       0.8399776670    -1.4917897366    -0.5267513334
    4      H       1.3341367723    -0.7418915809     0.9884273130
    5      H       2.1121350579    -0.2699494839    -0.5226267469
    6      C      -1.2350841333     0.1577073948     0.3573749040
    7      H      -0.0295400263     0.7237615792    -1.3318021700
    8      H       0.4608082489     1.4678768139     0.1716919877
    9      H      -2.0621303555     0.4588593992    -0.2888322475
   10      H      -1.3762164042     0.6374417411     1.3264797029
   11      H      -1.3088664183    -0.9217598185     0.5043152100
 ----------------------------------------------------------------

    7    -119.0991153126      4.43E-06 Convergence criterion met
    6    -119.1421741890      3.92E-06 Convergence criterion met
 Total energy in the final basis set = -119.14217419

                    Orbital Energies (a.u.)
 --------------------------------------------------------------

 Alpha MOs
 -- Occupied --
-10.2730 -10.2652 -10.2639  -0.8811  -0.7768  -0.6776  -0.5450  -0.5251
 -0.4806  -0.4670  -0.4188  -0.4163  -0.4036

                    Cartesian Multipole Moments
 -----------------------------------------------------------------
    Charge (ESU x 10^10)
                 0.0000
    Dipole Moment (Debye)
         X       0.0116      Y       0.0746      Z      -0.0395
       Tot       0.0852
    Quadrupole Moments (Debye-Ang)
        XX     -22.1729     XY       0.1436     YY     -21.7599
        XZ       0.2234     YZ       0.1905     ZZ     -21.4587

 Total job time:  39.73s(wall), 110.95s(cpu)
        *  Thank you very much for using Q-Chem.  Have a nice day.  *
