 Q-Chem 5.2 (devel), Q-Chem, Inc., Pleasanton, CA (2019)
 Q-Chem 5.2.2 for Intel X86 EM64T Linux

User input:
--------------------------------------------------------------
$rem
   JOBTYPE  sp
   EXCHANGE   omegaB97X-D
   BASIS   6-311+G(2df,2pd)
   max_scf_cycles   250
   geom_opt_max_cycles   1500
   basis2 6-31G*
   scf_algorithm rca_diis
   SYM_IGNORE  TRUE
   print_input   true
   geom_opt_dmax   80
   pop_mulliken false
   XC_GRID 000075000302
$end

$molecule
0 1
C       1.1380961619     -0.5788950732     -0.1379349029
C       0.1253202063     0.5581522378     -0.2023076065
H       0.7843601708     -1.4478296756     -0.6965139373
H       1.3027623695     -0.8960511284     0.8938034888
H       2.1014831812     -0.2832121291     -0.5545645911
C       -1.2293791734     0.1659669358     0.3753623133
H       0.0005372867     0.8766282130     -1.2399831479
H       0.5149417022     1.4241516653     0.3380703488
H       -1.9790897147     0.0792325951     -0.4137545658
H       -1.5869140129     0.9014369616     1.0968136144
H       -1.1721182382     -0.7995799364     0.8820540051
--------------------------------------------------------------

             Standard Nuclear Orientation (Angstroms)
    I     Atom           X                Y                Z
 ----------------------------------------------------------------
    1      C       1.1380961619    -0.5788950732    -0.1379349029
    2      C       0.1253202063     0.5581522378    -0.2023076065
    3      H       0.7843601708    -1.4478296756    -0.6965139373
    4      H       1.3027623695    -0.8960511284     0.8938034888
    5      H       2.1014831812    -0.2832121291    -0.5545645911
    6      C      -1.2293791734     0.1659669358     0.3753623133
    7      H       0.0005372867     0.8766282130    -1.2399831479
    8      H       0.5149417022     1.4241516653     0.3380703488
    9      H      -1.9790897147     0.0792325951    -0.4137545658
   10      H      -1.5869140129     0.9014369616     1.0968136144
   11      H      -1.1721182382    -0.7995799364     0.8820540051
 ----------------------------------------------------------------

    7    -119.0981211409      4.40E-06 Convergence criterion met
    6    -119.1412058372      3.94E-06 Convergence criterion met
 Total energy in the final basis set = -119.14120584

                    Orbital Energies (a.u.)
 --------------------------------------------------------------

 Alpha MOs
 -- Occupied --
-10.2727 -10.2653 -10.2636  -0.8811  -0.7767  -0.6776  -0.5448  -0.5256
 -0.4798  -0.4679  -0.4189  -0.4162  -0.4025

                    Cartesian Multipole Moments
 -----------------------------------------------------------------
    Charge (ESU x 10^10)
                -0.0000
    Dipole Moment (Debye)
         X       0.0134      Y       0.0752      Z      -0.0324
       Tot       0.0829
    Quadrupole Moments (Debye-Ang)
        XX     -22.1890     XY       0.1131     YY     -21.8037
        XZ       0.2391     YZ       0.1480     ZZ     -21.4049

 Total job time:  45.13s(wall), 125.20s(cpu)
        *  Thank you very much for using Q-Chem.  Have a nice day.  *
