 Q-Chem 5.3 (devel), Q-Chem, Inc., Pleasanton, CA (2020)
 Q-Chem 5.3.0 for Intel X86 EM64T Linux

User input:
--------------------------------------------------------------
$rem
   JOBTYPE  sp
   EXCHANGE   omegaB97X-D
   BASIS   6-311+G(2df,2pd)
   UNRESTRICTED   False
   max_scf_cycles   250
   geom_opt_max_cycles   1500
   basis2 6-31G*
   scf_algorithm rca_diis
   SYM_IGNORE  TRUE
   print_input   true
   geom_opt_dmax   80
   pop_mulliken false
   XC_GRID 000075000302
$end

$molecule
0 1
C       1.2667280135     -0.0200577006     0.2608320502
C       -0.0013748411     -0.0703685170     -0.5830309239
H       1.5500947251     -1.0190757507     0.5982362205
H       1.1193516633     0.5974736618     1.1491510017
H       2.1058833832     0.3942851366     -0.2988648891
C       -1.2659264271     0.0740527319     0.2552843728
H       -0.0352044158     -1.0132530979     -1.1340127008
H       0.0297040180     0.7216852781     -1.3349894212
H       -1.3353261648     -0.7246509072     0.9965208216
H       -2.1640167851     0.0361391818     -0.3620637109
H       -1.2699132300     1.0237706490     0.7939821981
$end
--------------------------------------------------------------

             Standard Nuclear Orientation (Angstroms)
    I     Atom           X                Y                Z
 ----------------------------------------------------------------
    1      C       1.2667280135    -0.0200577006     0.2608320502
    2      C      -0.0013748411    -0.0703685170    -0.5830309239
    3      H       1.5500947251    -1.0190757507     0.5982362205
    4      H       1.1193516633     0.5974736618     1.1491510017
    5      H       2.1058833832     0.3942851366    -0.2988648891
    6      C      -1.2659264271     0.0740527319     0.2552843728
    7      H      -0.0352044158    -1.0132530979    -1.1340127008
    8      H       0.0297040180     0.7216852781    -1.3349894212
    9      H      -1.3353261648    -0.7246509072     0.9965208216
   10      H      -2.1640167851     0.0361391818    -0.3620637109
   11      H      -1.2699132300     1.0237706490     0.7939821981
 ----------------------------------------------------------------

    7    -119.1004413379      4.44E-06 Convergence criterion met
    6    -119.1434501112      3.91E-06 Convergence criterion met
 Total energy in the final basis set = -119.14345011

                    Orbital Energies (a.u.)
 --------------------------------------------------------------

 Alpha MOs
 -- Occupied --
-10.2733 -10.2652 -10.2643  -0.8811  -0.7769  -0.6777  -0.5452  -0.5250
 -0.4813  -0.4657  -0.4185  -0.4174  -0.4047

                    Cartesian Multipole Moments
 -----------------------------------------------------------------
    Charge (ESU x 10^10)
                -0.0000
    Dipole Moment (Debye)
         X       0.0004      Y      -0.0131      Z      -0.0841
       Tot       0.0851
    Quadrupole Moments (Debye-Ang)
        XX     -22.2087     XY       0.0501     YY     -21.3257
        XZ      -0.0360     YZ      -0.0529     ZZ     -21.8494

 Total job time:  28.38s(wall), 76.46s(cpu)
        *  Thank you very much for using Q-Chem.  Have a nice day.  *
