 Q-Chem 5.3 (devel), Q-Chem, Inc., Pleasanton, CA (2020)
 Q-Chem 5.3.0 for Intel X86 EM64T Linux

User input:
--------------------------------------------------------------
$rem
   JOBTYPE  sp
   EXCHANGE   omegaB97X-D
   BASIS   6-311+G(2df,2pd)
   UNRESTRICTED   False
   max_scf_cycles   250
   geom_opt_max_cycles   1500
   basis2 6-31G*
   scf_algorithm rca_diis
   SYM_IGNORE  TRUE
   print_input   true
   geom_opt_dmax   80
   pop_mulliken false
   XC_GRID 000075000302
$end

$molecule
0 1
C       1.2653215498     -0.0399609205     0.2647952612
C       -0.0054726845     -0.1397862094     -0.5705715283
H       1.8012881257     -0.9911870961     0.2739562697
H       1.0318118781     0.2158107617     1.3002803705
H       1.9425849610     0.7216125671     -0.1230738918
C       -1.2620858825     0.1469866506     0.2426967822
H       -0.0754598126     -1.1378574111     -1.0095616986
H       0.0535303837     0.5588432966     -1.4085405867
H       -1.3596521792     -0.5580520584     1.0706922752
H       -2.1622069336     0.0717564247     -0.3682409327
H       -1.2296594666     1.1518346609     0.6686126981
$end
--------------------------------------------------------------

             Standard Nuclear Orientation (Angstroms)
    I     Atom           X                Y                Z
 ----------------------------------------------------------------
    1      C       1.2653215498    -0.0399609205     0.2647952612
    2      C      -0.0054726845    -0.1397862094    -0.5705715283
    3      H       1.8012881257    -0.9911870961     0.2739562697
    4      H       1.0318118781     0.2158107617     1.3002803705
    5      H       1.9425849610     0.7216125671    -0.1230738918
    6      C      -1.2620858825     0.1469866506     0.2426967822
    7      H      -0.0754598126    -1.1378574111    -1.0095616986
    8      H       0.0535303837     0.5588432966    -1.4085405867
    9      H      -1.3596521792    -0.5580520584     1.0706922752
   10      H      -2.1622069336     0.0717564247    -0.3682409327
   11      H      -1.2296594666     1.1518346609     0.6686126981
 ----------------------------------------------------------------

    7    -119.0977946946      4.40E-06 Convergence criterion met
    6    -119.1408988927      3.95E-06 Convergence criterion met
 Total energy in the final basis set = -119.14089889

                    Orbital Energies (a.u.)
 --------------------------------------------------------------

 Alpha MOs
 -- Occupied --
-10.2726 -10.2653 -10.2635  -0.8811  -0.7767  -0.6776  -0.5447  -0.5256
 -0.4796  -0.4683  -0.4190  -0.4160  -0.4023

                    Cartesian Multipole Moments
 -----------------------------------------------------------------
    Charge (ESU x 10^10)
                -0.0000
    Dipole Moment (Debye)
         X       0.0030      Y      -0.0201      Z      -0.0801
       Tot       0.0827
    Quadrupole Moments (Debye-Ang)
        XX     -22.2624     XY       0.0675     YY     -21.3076
        XZ      -0.0740     YZ      -0.1243     ZZ     -21.8332

 Total job time:  27.20s(wall), 73.93s(cpu)
        *  Thank you very much for using Q-Chem.  Have a nice day.  *
