 Q-Chem 5.3 (devel), Q-Chem, Inc., Pleasanton, CA (2020)
 Q-Chem 5.3.0 for Intel X86 EM64T Linux

User input:
--------------------------------------------------------------
$rem
   JOBTYPE  sp
   EXCHANGE   omegaB97X-D
   BASIS   6-311+G(2df,2pd)
   UNRESTRICTED   False
   max_scf_cycles   250
   geom_opt_max_cycles   1500
   basis2 6-31G*
   scf_algorithm rca_diis
   SYM_IGNORE  TRUE
   print_input   true
   geom_opt_dmax   80
   pop_mulliken false
   XC_GRID 000075000302
$end

$molecule
0 1
C       1.1381043007     -0.5788824949     -0.1379115244
C       0.1253126780     0.5581417961     -0.2023292079
H       0.7843823109     -1.4478403673     -0.6964527510
H       1.3027724933     -0.8959929842     0.8938348861
H       2.1014875968     -0.2832038462     -0.5545518326
C       -1.2293817855     0.1659620856     0.3753547303
H       0.0005277488     0.8765725383     -1.2400128183
H       0.5149202406     1.4241642956     0.3380111191
H       -1.9790616419     0.0791608287     -0.4137086098
H       -1.5869395133     0.9014206903     1.0967252988
H       -1.1721244890     -0.7995018760     0.8820857285
$end
--------------------------------------------------------------

             Standard Nuclear Orientation (Angstroms)
    I     Atom           X                Y                Z
 ----------------------------------------------------------------
    1      C       1.1381043007    -0.5788824949    -0.1379115244
    2      C       0.1253126780     0.5581417961    -0.2023292079
    3      H       0.7843823109    -1.4478403673    -0.6964527510
    4      H       1.3027724933    -0.8959929842     0.8938348861
    5      H       2.1014875968    -0.2832038462    -0.5545518326
    6      C      -1.2293817855     0.1659620856     0.3753547303
    7      H       0.0005277488     0.8765725383    -1.2400128183
    8      H       0.5149202406     1.4241642956     0.3380111191
    9      H      -1.9790616419     0.0791608287    -0.4137086098
   10      H      -1.5869395133     0.9014206903     1.0967252988
   11      H      -1.1721244890    -0.7995018760     0.8820857285
 ----------------------------------------------------------------

    7    -119.0981206273      4.40E-06 Convergence criterion met
    6    -119.1412064497      3.94E-06 Convergence criterion met
 Total energy in the final basis set = -119.14120645

                    Orbital Energies (a.u.)
 --------------------------------------------------------------

 Alpha MOs
 -- Occupied --
-10.2727 -10.2653 -10.2636  -0.8811  -0.7768  -0.6776  -0.5448  -0.5256
 -0.4798  -0.4679  -0.4189  -0.4162  -0.4025

                    Cartesian Multipole Moments
 -----------------------------------------------------------------
    Charge (ESU x 10^10)
                -0.0000
    Dipole Moment (Debye)
         X       0.0133      Y       0.0751      Z      -0.0324
       Tot       0.0829
    Quadrupole Moments (Debye-Ang)
        XX     -22.1886     XY       0.1132     YY     -21.8036
        XZ       0.2390     YZ       0.1480     ZZ     -21.4048

 Total job time:  27.31s(wall), 74.09s(cpu)
        *  Thank you very much for using Q-Chem.  Have a nice day.  *
