 Q-Chem 5.3 (devel), Q-Chem, Inc., Pleasanton, CA (2020)
 Q-Chem 5.3.0 for Intel X86 EM64T Linux

User input:
--------------------------------------------------------------
$rem
   JOBTYPE  sp
   EXCHANGE   omegaB97X-D
   BASIS   6-311+G(2df,2pd)
   UNRESTRICTED   False
   max_scf_cycles   250
   geom_opt_max_cycles   1500
   basis2 6-31G*
   scf_algorithm rca_diis
   SYM_IGNORE  TRUE
   print_input   true
   geom_opt_dmax   80
   pop_mulliken false
   XC_GRID 000075000302
$end

$molecule
0 1
C       1.2602336641     -0.1708582030     0.2366672062
C       0.0074315271     0.1625499141     -0.5646108854
H       1.2152303031     -1.1908420912     0.6236851606
H       1.3664170872     0.5005903089     1.0911011172
H       2.1613304301     -0.0834218625     -0.3711994648
C       -1.2646558359     0.0465307740     0.2666857207
H       -0.0601101792     -0.5025912849     -1.4287763758
H       0.0899106478     1.1757974173     -0.9649649581
H       -1.0282677332     -0.0772926212     1.3254414676
H       -1.8705668770     -0.8057780075     -0.0424484513
H       -1.8769530946     0.9453163220     0.1694644820
$end
--------------------------------------------------------------

             Standard Nuclear Orientation (Angstroms)
    I     Atom           X                Y                Z
 ----------------------------------------------------------------
    1      C       1.2602336641    -0.1708582030     0.2366672062
    2      C       0.0074315271     0.1625499141    -0.5646108854
    3      H       1.2152303031    -1.1908420912     0.6236851606
    4      H       1.3664170872     0.5005903089     1.0911011172
    5      H       2.1613304301    -0.0834218625    -0.3711994648
    6      C      -1.2646558359     0.0465307740     0.2666857207
    7      H      -0.0601101792    -0.5025912849    -1.4287763758
    8      H       0.0899106478     1.1757974173    -0.9649649581
    9      H      -1.0282677332    -0.0772926212     1.3254414676
   10      H      -1.8705668770    -0.8057780075    -0.0424484513
   11      H      -1.8769530946     0.9453163220     0.1694644820
 ----------------------------------------------------------------

    7    -119.0981480477      4.41E-06 Convergence criterion met
    6    -119.1412404940      3.94E-06 Convergence criterion met
 Total energy in the final basis set = -119.14124049

                    Orbital Energies (a.u.)
 --------------------------------------------------------------

 Alpha MOs
 -- Occupied --
-10.2727 -10.2653 -10.2636  -0.8811  -0.7768  -0.6776  -0.5448  -0.5254
 -0.4799  -0.4680  -0.4189  -0.4160  -0.4026

                    Cartesian Multipole Moments
 -----------------------------------------------------------------
    Charge (ESU x 10^10)
                -0.0000
    Dipole Moment (Debye)
         X      -0.0028      Y       0.0225      Z      -0.0805
       Tot       0.0836
    Quadrupole Moments (Debye-Ang)
        XX     -22.2579     XY       0.0698     YY     -21.3226
        XZ       0.0708     YZ       0.1453     ZZ     -21.8201

 Total job time:  27.47s(wall), 74.47s(cpu)
        *  Thank you very much for using Q-Chem.  Have a nice day.  *
