 Q-Chem 5.3 (devel), Q-Chem, Inc., Pleasanton, CA (2020)
 Q-Chem 5.3.0 for Intel X86 EM64T Linux

User input:
--------------------------------------------------------------
$rem
   JOBTYPE  sp
   EXCHANGE   omegaB97X-D
   BASIS   6-311+G(2df,2pd)
   UNRESTRICTED   False
   max_scf_cycles   250
   geom_opt_max_cycles   1500
   basis2 6-31G*
   scf_algorithm rca_diis
   SYM_IGNORE  TRUE
   print_input   true
   geom_opt_dmax   80
   pop_mulliken false
   XC_GRID 000075000302
$end

$molecule
0 1
C       1.2392593493     -0.3277631506     0.1698741170
C       0.0289565732     0.3130360650     -0.4989040993
H       1.1020119076     -1.4060541502     0.2729614189
H       1.3934954637     0.0811643322     1.1704563808
H       2.1512689062     -0.1602155365     -0.4039627501
C       -1.2575964929     0.0907486281     0.2872830609
H       -0.0861312620     -0.0905845250     -1.5076666586
H       0.2031044207     1.3851650867     -0.6170928442
H       -1.3324756452     0.7942447324     1.1189450377
H       -1.3088462899     -0.9183614200     0.6973961601
H       -2.1330469913     0.2386206040     -0.3482448042
$end
--------------------------------------------------------------

             Standard Nuclear Orientation (Angstroms)
    I     Atom           X                Y                Z
 ----------------------------------------------------------------
    1      C       1.2392593493    -0.3277631506     0.1698741170
    2      C       0.0289565732     0.3130360650    -0.4989040993
    3      H       1.1020119076    -1.4060541502     0.2729614189
    4      H       1.3934954637     0.0811643322     1.1704563808
    5      H       2.1512689062    -0.1602155365    -0.4039627501
    6      C      -1.2575964929     0.0907486281     0.2872830609
    7      H      -0.0861312620    -0.0905845250    -1.5076666586
    8      H       0.2031044207     1.3851650867    -0.6170928442
    9      H      -1.3324756452     0.7942447324     1.1189450377
   10      H      -1.3088462899    -0.9183614200     0.6973961601
   11      H      -2.1330469913     0.2386206040    -0.3482448042
 ----------------------------------------------------------------

    7    -119.1017367023      4.47E-06 Convergence criterion met
    6    -119.1446895847      3.86E-06 Convergence criterion met
 Total energy in the final basis set = -119.14468958

                    Orbital Energies (a.u.)
 --------------------------------------------------------------

 Alpha MOs
 -- Occupied --
-10.2737 -10.2650 -10.2647  -0.8811  -0.7771  -0.6776  -0.5455  -0.5241
 -0.4824  -0.4648  -0.4187  -0.4171  -0.4060

                    Cartesian Multipole Moments
 -----------------------------------------------------------------
    Charge (ESU x 10^10)
                 0.0000
    Dipole Moment (Debye)
         X       0.0012      Y       0.0486      Z      -0.0735
       Tot       0.0881
    Quadrupole Moments (Debye-Ang)
        XX     -22.1828     XY       0.1410     YY     -21.4719
        XZ       0.0700     YZ       0.1986     ZZ     -21.7216

 Total job time:  27.71s(wall), 74.94s(cpu)
        *  Thank you very much for using Q-Chem.  Have a nice day.  *
