 Q-Chem 5.3 (devel), Q-Chem, Inc., Pleasanton, CA (2020)
 Q-Chem 5.3.0 for Intel X86 EM64T Linux

User input:
--------------------------------------------------------------
$rem
   JOBTYPE  sp
   EXCHANGE   omegaB97X-D
   BASIS   6-311+G(2df,2pd)
   UNRESTRICTED   False
   max_scf_cycles   250
   geom_opt_max_cycles   1500
   basis2 6-31G*
   scf_algorithm rca_diis
   SYM_IGNORE  TRUE
   print_input   true
   geom_opt_dmax   80
   pop_mulliken false
   XC_GRID 000075000302
$end

$molecule
0 1
C       1.2663602161     -0.0267174658     0.2618643856
C       -0.0024410802     -0.0936603365     -0.5797903356
H       1.6358654724     -1.0285075298     0.4900263131
H       1.0778604696     0.4783326545     1.2113734974
H       2.0617149547     0.5139041299     -0.2521993410
C       -1.2649316984     0.0985432598     0.2520125039
H       -0.0480862247     -1.0565211294     -1.0941562616
H       0.0383160332     0.6684771482     -1.3616100102
H       -1.3440914757     -0.6701748011     1.0233629900
H       -2.1635490513     0.0480953303     -0.3636694308
H       -1.2570176763     1.0682294059     0.7538307080
$end
--------------------------------------------------------------

             Standard Nuclear Orientation (Angstroms)
    I     Atom           X                Y                Z
 ----------------------------------------------------------------
    1      C       1.2663602161    -0.0267174658     0.2618643856
    2      C      -0.0024410802    -0.0936603365    -0.5797903356
    3      H       1.6358654724    -1.0285075298     0.4900263131
    4      H       1.0778604696     0.4783326545     1.2113734974
    5      H       2.0617149547     0.5139041299    -0.2521993410
    6      C      -1.2649316984     0.0985432598     0.2520125039
    7      H      -0.0480862247    -1.0565211294    -1.0941562616
    8      H       0.0383160332     0.6684771482    -1.3616100102
    9      H      -1.3440914757    -0.6701748011     1.0233629900
   10      H      -2.1635490513     0.0480953303    -0.3636694308
   11      H      -1.2570176763     1.0682294059     0.7538307080
 ----------------------------------------------------------------

    7    -119.0991090491      4.42E-06 Convergence criterion met
    6    -119.1421663726      3.93E-06 Convergence criterion met
 Total energy in the final basis set = -119.14216637

                    Orbital Energies (a.u.)
 --------------------------------------------------------------

 Alpha MOs
 -- Occupied --
-10.2730 -10.2653 -10.2639  -0.8811  -0.7768  -0.6776  -0.5450  -0.5253
 -0.4805  -0.4669  -0.4188  -0.4167  -0.4034

                    Cartesian Multipole Moments
 -----------------------------------------------------------------
    Charge (ESU x 10^10)
                 0.0000
    Dipole Moment (Debye)
         X       0.0013      Y      -0.0156      Z      -0.0825
       Tot       0.0840
    Quadrupole Moments (Debye-Ang)
        XX     -22.2331     XY       0.0598     YY     -21.3109
        XZ      -0.0546     YZ      -0.0756     ZZ     -21.8486

 Total job time:  26.59s(wall), 72.76s(cpu)
        *  Thank you very much for using Q-Chem.  Have a nice day.  *
