 Q-Chem 5.2 (devel), Q-Chem, Inc., Pleasanton, CA (2019)
 Q-Chem 5.2.2 for Intel X86 EM64T Linux

User input:
--------------------------------------------------------------
$rem
   JOBTYPE  sp
   EXCHANGE   omegaB97X-D
   BASIS   6-311+G(2df,2pd)
   max_scf_cycles   250
   geom_opt_max_cycles   1500
   basis2 6-31G*
   scf_algorithm rca_diis
   SYM_IGNORE  TRUE
   print_input   true
   geom_opt_dmax   80
   pop_mulliken false
   XC_GRID 000075000302
$end

$molecule
0 1
C       1.2260767054     -0.3875327965     0.1289132415
C       0.0420083599     0.3708827882     -0.4588933670
H       1.0482072636     -1.4646097687     0.1077179736
H       1.3936274738     -0.1024013156     1.1694940229
H       2.1448506336     -0.1895055149     -0.4240447262
C       -1.2535131533     0.1081746372     0.2996117383
H       -0.0862065432     0.0904894365     -1.5070838921
H       0.2565498545     1.4421930521     -0.4534958642
H       -1.5700591941     0.9967620098     0.8495639695
H       -1.1417733054     -0.7062651179     1.0161232006
H       -2.0597681555     -0.1581867443     -0.3868612779
--------------------------------------------------------------

             Standard Nuclear Orientation (Angstroms)
    I     Atom           X                Y                Z
 ----------------------------------------------------------------
    1      C       1.2260767054    -0.3875327965     0.1289132415
    2      C       0.0420083599     0.3708827882    -0.4588933670
    3      H       1.0482072636    -1.4646097687     0.1077179736
    4      H       1.3936274738    -0.1024013156     1.1694940229
    5      H       2.1448506336    -0.1895055149    -0.4240447262
    6      C      -1.2535131533     0.1081746372     0.2996117383
    7      H      -0.0862065432     0.0904894365    -1.5070838921
    8      H       0.2565498545     1.4421930521    -0.4534958642
    9      H      -1.5700591941     0.9967620098     0.8495639695
   10      H      -1.1417733054    -0.7062651179     1.0161232006
   11      H      -2.0597681555    -0.1581867443    -0.3868612779
 ----------------------------------------------------------------

    7    -119.0981016989      4.40E-06 Convergence criterion met
    6    -119.1411872805      3.92E-06 Convergence criterion met
 Total energy in the final basis set = -119.14118728

                    Orbital Energies (a.u.)
 --------------------------------------------------------------

 Alpha MOs
 -- Occupied --
-10.2727 -10.2652 -10.2636  -0.8810  -0.7768  -0.6775  -0.5447  -0.5253
 -0.4806  -0.4676  -0.4194  -0.4157  -0.4022

                    Cartesian Multipole Moments
 -----------------------------------------------------------------
    Charge (ESU x 10^10)
                -0.0000
    Dipole Moment (Debye)
         X       0.0004      Y       0.0532      Z      -0.0662
       Tot       0.0850
    Quadrupole Moments (Debye-Ang)
        XX     -22.2384     XY       0.1424     YY     -21.5044
        XZ       0.1406     YZ       0.2401     ZZ     -21.6562

 Total job time:  40.14s(wall), 111.34s(cpu)
        *  Thank you very much for using Q-Chem.  Have a nice day.  *
