 Q-Chem 5.3 (devel), Q-Chem, Inc., Pleasanton, CA (2020)
 Q-Chem 5.3.0 for Intel X86 EM64T Linux

User input:
--------------------------------------------------------------
$rem
   JOBTYPE  sp
   EXCHANGE   omegaB97X-D
   BASIS   6-311+G(2df,2pd)
   UNRESTRICTED   False
   max_scf_cycles   250
   geom_opt_max_cycles   1500
   basis2 6-31G*
   scf_algorithm rca_diis
   SYM_IGNORE  TRUE
   print_input   true
   geom_opt_dmax   80
   pop_mulliken false
   XC_GRID 000075000302
$end

$molecule
0 1
C       1.1005489611     -0.6053266992     -0.2525241826
C       0.1607432592     0.5838532320     -0.0933479244
H       0.6971541119     -1.3281583019     -0.9645371050
H       1.2385751042     -1.1229321824     0.6989003701
H       2.0830900651     -0.2961212141     -0.6104729665
C       -1.2193727365     0.1737341744     0.4064549808
H       0.0626427400     1.1014043254     -1.0505698660
H       0.5998884377     1.3050478354     0.6000398083
H       -1.6924653935     -0.5256919639     -0.2857600977
H       -1.8797602085     1.0346573048     0.5151846245
H       -1.1510444012     -0.3204658444     1.3776773774
$end
--------------------------------------------------------------

             Standard Nuclear Orientation (Angstroms)
    I     Atom           X                Y                Z
 ----------------------------------------------------------------
    1      C       1.1005489611    -0.6053266992    -0.2525241826
    2      C       0.1607432592     0.5838532320    -0.0933479244
    3      H       0.6971541119    -1.3281583019    -0.9645371050
    4      H       1.2385751042    -1.1229321824     0.6989003701
    5      H       2.0830900651    -0.2961212141    -0.6104729665
    6      C      -1.2193727365     0.1737341744     0.4064549808
    7      H       0.0626427400     1.1014043254    -1.0505698660
    8      H       0.5998884377     1.3050478354     0.6000398083
    9      H      -1.6924653935    -0.5256919639    -0.2857600977
   10      H      -1.8797602085     1.0346573048     0.5151846245
   11      H      -1.1510444012    -0.3204658444     1.3776773774
 ----------------------------------------------------------------

    7    -119.1030908966      4.48E-06 Convergence criterion met
    6    -119.1459910074      3.87E-06 Convergence criterion met
 Total energy in the final basis set = -119.14599101

                    Orbital Energies (a.u.)
 --------------------------------------------------------------

 Alpha MOs
 -- Occupied --
-10.2740 -10.2651 -10.2651  -0.8812  -0.7771  -0.6777  -0.5457  -0.5242
 -0.4826  -0.4636  -0.4186  -0.4177  -0.4075

                    Cartesian Multipole Moments
 -----------------------------------------------------------------
    Charge (ESU x 10^10)
                -0.0000
    Dipole Moment (Debye)
         X       0.0223      Y       0.0809      Z      -0.0173
       Tot       0.0857
    Quadrupole Moments (Debye-Ang)
        XX     -22.0688     XY       0.1103     YY     -21.8605
        XZ       0.2171     YZ       0.0282     ZZ     -21.4367

 Total job time:  27.48s(wall), 74.55s(cpu)
        *  Thank you very much for using Q-Chem.  Have a nice day.  *
