 Q-Chem 5.2 (devel), Q-Chem, Inc., Pleasanton, CA (2019)
 Q-Chem 5.2.2 for Intel X86 EM64T Linux

User input:
--------------------------------------------------------------
$rem
   JOBTYPE  sp
   EXCHANGE   omegaB97X-D
   BASIS   6-311+G(2df,2pd)
   max_scf_cycles   250
   geom_opt_max_cycles   1500
   basis2 6-31G*
   scf_algorithm rca_diis
   SYM_IGNORE  TRUE
   print_input   true
   geom_opt_dmax   80
   pop_mulliken false
   XC_GRID 000075000302
$end

$molecule
0 1
C       1.2824382079     0.0387638718     0.2441174351
C       0.0168987807     0.0029025323     -0.5893284750
H       1.4549075813     -0.8061842850     0.9250375103
H       1.1674420101     0.8152959795     0.9975480016
H       2.1364187682     -0.1640716541     -0.3982746869
C       -1.2509884091     -0.0310348169     0.2705434344
H       0.0222162179     -0.8719072225     -1.2438792127
H       -0.0496117803     0.8739289478     -1.2455650582
H       -1.1564440603     -0.9276715163     0.8740460283
H       -2.1716663284     0.1596509397     -0.2872713126
H       -1.4516110485     0.9103278897     0.7940713546
--------------------------------------------------------------

             Standard Nuclear Orientation (Angstroms)
    I     Atom           X                Y                Z
 ----------------------------------------------------------------
    1      C       1.2824382079     0.0387638718     0.2441174351
    2      C       0.0168987807     0.0029025323    -0.5893284750
    3      H       1.4549075813    -0.8061842850     0.9250375103
    4      H       1.1674420101     0.8152959795     0.9975480016
    5      H       2.1364187682    -0.1640716541    -0.3982746869
    6      C      -1.2509884091    -0.0310348169     0.2705434344
    7      H       0.0222162179    -0.8719072225    -1.2438792127
    8      H      -0.0496117803     0.8739289478    -1.2455650582
    9      H      -1.1564440603    -0.9276715163     0.8740460283
   10      H      -2.1716663284     0.1596509397    -0.2872713126
   11      H      -1.4516110485     0.9103278897     0.7940713546
 ----------------------------------------------------------------

    7    -119.0705293354      6.22E-06 Convergence criterion met
    6    -119.1152317671      4.05E-06 Convergence criterion met
 Total energy in the final basis set = -119.11523177

                    Orbital Energies (a.u.)
 --------------------------------------------------------------

 Alpha MOs
 -- Occupied --
-10.2745 -10.2659 -10.2657  -0.8829  -0.7810  -0.6810  -0.5539  -0.5409
 -0.4825  -0.4485  -0.4329  -0.4092  -0.3833

                    Cartesian Multipole Moments
 -----------------------------------------------------------------
    Charge (ESU x 10^10)
                 0.0000
    Dipole Moment (Debye)
         X      -0.0646      Y      -0.0165      Z      -0.0604
       Tot       0.0900
    Quadrupole Moments (Debye-Ang)
        XX     -22.1104     XY      -1.4636     YY     -21.4701
        XZ       0.0591     YZ      -0.0253     ZZ     -21.9700

 Total job time:  49.12s(wall), 136.99s(cpu)
        *  Thank you very much for using Q-Chem.  Have a nice day.  *
