 Q-Chem 5.3 (devel), Q-Chem, Inc., Pleasanton, CA (2020)
 Q-Chem 5.3.0 for Intel X86 EM64T Linux

User input:
--------------------------------------------------------------
$rem
   JOBTYPE  sp
   EXCHANGE   omegaB97X-D
   BASIS   6-311+G(2df,2pd)
   UNRESTRICTED   False
   max_scf_cycles   250
   geom_opt_max_cycles   1500
   basis2 6-31G*
   scf_algorithm rca_diis
   SYM_IGNORE  TRUE
   print_input   true
   geom_opt_dmax   80
   pop_mulliken false
   XC_GRID 000075000302
$end

$molecule
0 1
C       1.2676095495     -0.0887688726     0.2542970745
C       -0.0036227200     -0.0023949759     -0.5848910330
H       1.3415441765     -0.9381967972     0.9356986749
H       1.2667716877     0.8107425882     0.8746148309
H       2.1604045565     0.0038903807     -0.3645741107
C       -1.2673628750     0.0891171830     0.2590907007
H       0.2537088118     -0.8426686889     -1.2341038195
H       -0.2435959148     0.8377124146     -1.2409315437
H       -1.2743710677     -0.8207416925     0.8633723777
H       -2.1656536137     0.0063594820     -0.3539341390
H       -1.3354326515     0.9449496446     0.9324060062
$end
--------------------------------------------------------------

             Standard Nuclear Orientation (Angstroms)
    I     Atom           X                Y                Z
 ----------------------------------------------------------------
    1      C       1.2676095495    -0.0887688726     0.2542970745
    2      C      -0.0036227200    -0.0023949759    -0.5848910330
    3      H       1.3415441765    -0.9381967972     0.9356986749
    4      H       1.2667716877     0.8107425882     0.8746148309
    5      H       2.1604045565     0.0038903807    -0.3645741107
    6      C      -1.2673628750     0.0891171830     0.2590907007
    7      H       0.2537088118    -0.8426686889    -1.2341038195
    8      H      -0.2435959148     0.8377124146    -1.2409315437
    9      H      -1.2743710677    -0.8207416925     0.8633723777
   10      H      -2.1656536137     0.0063594820    -0.3539341390
   11      H      -1.3354326515     0.9449496446     0.9324060062
 ----------------------------------------------------------------

    7    -119.0749971721      5.52E-06 Convergence criterion met
    6    -119.1189135570      4.23E-06 Convergence criterion met
 Total energy in the final basis set = -119.11891356

                    Orbital Energies (a.u.)
 --------------------------------------------------------------

 Alpha MOs
 -- Occupied --
-10.2737 -10.2670 -10.2668  -0.8842  -0.7809  -0.6779  -0.5480  -0.5262
 -0.4954  -0.4691  -0.4311  -0.4097  -0.3748

                    Cartesian Multipole Moments
 -----------------------------------------------------------------
    Charge (ESU x 10^10)
                -0.0000
    Dipole Moment (Debye)
         X      -0.0034      Y       0.0020      Z      -0.0446
       Tot       0.0448
    Quadrupole Moments (Debye-Ang)
        XX     -21.9964     XY      -0.6891     YY     -21.5327
        XZ      -0.0216     YZ      -0.0075     ZZ     -21.9773

 Total job time:  26.92s(wall), 73.22s(cpu)
        *  Thank you very much for using Q-Chem.  Have a nice day.  *
