 Q-Chem 5.3 (devel), Q-Chem, Inc., Pleasanton, CA (2020)
 Q-Chem 5.3.0 for Intel X86 EM64T Linux

User input:
--------------------------------------------------------------
$rem
   JOBTYPE  sp
   EXCHANGE   omegaB97X-D
   BASIS   6-311+G(2df,2pd)
   UNRESTRICTED   False
   max_scf_cycles   250
   geom_opt_max_cycles   1500
   basis2 6-31G*
   scf_algorithm rca_diis
   SYM_IGNORE  TRUE
   print_input   true
   geom_opt_dmax   80
   pop_mulliken false
   XC_GRID 000075000302
$end

$molecule
0 1
C       1.2409151497     0.0019135392     0.2852827806
C       -0.0078692343     0.0003117503     -0.5873174714
H       1.2718078447     -0.8292378919     0.8988834386
H       1.2807684261     0.8480797096     0.8849378353
H       2.2526539599     -0.0100337340     -0.4011777785
C       -1.2929488946     -0.0010715388     0.2331180734
H       0.0012535413     -0.8736436388     -1.2429505226
H       -0.0013082788     0.8740959822     -1.2432402092
H       -1.3385278695     -0.9312968932     0.9079701336
H       -2.0770871989     0.0078317937     -0.3175800741
H       -1.3296575061     0.9130515876     0.9231188132
$end
--------------------------------------------------------------

             Standard Nuclear Orientation (Angstroms)
    I     Atom           X                Y                Z
 ----------------------------------------------------------------
    1      C       1.2409151497     0.0019135392     0.2852827806
    2      C      -0.0078692343     0.0003117503    -0.5873174714
    3      H       1.2718078447    -0.8292378919     0.8988834386
    4      H       1.2807684261     0.8480797096     0.8849378353
    5      H       2.2526539599    -0.0100337340    -0.4011777785
    6      C      -1.2929488946    -0.0010715388     0.2331180734
    7      H       0.0012535413    -0.8736436388    -1.2429505226
    8      H      -0.0013082788     0.8740959822    -1.2432402092
    9      H      -1.3385278695    -0.9312968932     0.9079701336
   10      H      -2.0770871989     0.0078317937    -0.3175800741
   11      H      -1.3296575061     0.9130515876     0.9231188132
 ----------------------------------------------------------------

    7    -119.0724724773      5.22E-06 Convergence criterion met
    5    -119.1166434913      9.66E-06 Convergence criterion met
 Total energy in the final basis set = -119.11664349

                    Orbital Energies (a.u.)
 --------------------------------------------------------------

 Alpha MOs
 -- Occupied --
-10.2750 -10.2658 -10.2629  -0.8831  -0.7820  -0.6807  -0.5476  -0.5293
 -0.4801  -0.4652  -0.4249  -0.4099  -0.4070

                    Cartesian Multipole Moments
 -----------------------------------------------------------------
    Charge (ESU x 10^10)
                 0.0000
    Dipole Moment (Debye)
         X      -0.1644      Y       0.0031      Z      -0.0761
       Tot       0.1812
    Quadrupole Moments (Debye-Ang)
        XX     -22.2917     XY      -0.0105     YY     -21.3597
        XZ       0.2573     YZ       0.0026     ZZ     -21.8095

 Total job time:  23.85s(wall), 65.26s(cpu)
        *  Thank you very much for using Q-Chem.  Have a nice day.  *
