 Q-Chem 5.3 (devel), Q-Chem, Inc., Pleasanton, CA (2020)
 Q-Chem 5.3.0 for Intel X86 EM64T Linux

User input:
--------------------------------------------------------------
$rem
   JOBTYPE  sp
   EXCHANGE   omegaB97X-D
   BASIS   6-311+G(2df,2pd)
   UNRESTRICTED   False
   max_scf_cycles   250
   geom_opt_max_cycles   1500
   basis2 6-31G*
   scf_algorithm rca_diis
   SYM_IGNORE  TRUE
   print_input   true
   geom_opt_dmax   80
   pop_mulliken false
   XC_GRID 000075000302
$end

$molecule
0 1
C       1.3354100762     -0.0021319359     0.2605052877
C       -0.0000000209     0.0066753289     -0.4897081274
H       1.4495692884     -0.8806329409     0.8981087106
H       1.4703897841     0.8843728001     0.8829357842
H       2.1446828975     -0.0165761841     -0.4716343795
C       -1.3354101754     -0.0021320946     0.2605051671
H       0.0000002192     -0.8563387149     -1.1611195239
H       -0.0000001550     0.8796001688     -1.1479580467
H       -1.4495694056     -0.8806330760     0.8981085974
H       -2.1446830861     -0.0165752361     -0.4716343353
H       -1.4703894831     0.8843725506     0.8829358846
$end
--------------------------------------------------------------

             Standard Nuclear Orientation (Angstroms)
    I     Atom           X                Y                Z
 ----------------------------------------------------------------
    1      C       1.3354100762    -0.0021319359     0.2605052877
    2      C      -0.0000000209     0.0066753289    -0.4897081274
    3      H       1.4495692884    -0.8806329409     0.8981087106
    4      H       1.4703897841     0.8843728001     0.8829357842
    5      H       2.1446828975    -0.0165761841    -0.4716343795
    6      C      -1.3354101754    -0.0021320946     0.2605051671
    7      H       0.0000002192    -0.8563387149    -1.1611195239
    8      H      -0.0000001550     0.8796001688    -1.1479580467
    9      H      -1.4495694056    -0.8806330760     0.8981085974
   10      H      -2.1446830861    -0.0165752361    -0.4716343353
   11      H      -1.4703894831     0.8843725506     0.8829358846
 ----------------------------------------------------------------

    7    -119.1002041504      4.28E-06 Convergence criterion met
    6    -119.1430693275      4.10E-06 Convergence criterion met
 Total energy in the final basis set = -119.14306933

                    Orbital Energies (a.u.)
 --------------------------------------------------------------

 Alpha MOs
 -- Occupied --
-10.2751 -10.2667 -10.2667  -0.8765  -0.7824  -0.6752  -0.5422  -0.5180
 -0.4887  -0.4684  -0.4233  -0.4098  -0.4043

                    Cartesian Multipole Moments
 -----------------------------------------------------------------
    Charge (ESU x 10^10)
                 0.0000
    Dipole Moment (Debye)
         X       0.0000      Y       0.0001      Z      -0.1117
       Tot       0.1117
    Quadrupole Moments (Debye-Ang)
        XX     -22.0659     XY      -0.0000     YY     -21.3923
        XZ       0.0000     YZ      -0.0017     ZZ     -21.8054

 Total job time:  26.93s(wall), 72.94s(cpu)
        *  Thank you very much for using Q-Chem.  Have a nice day.  *
