 Q-Chem 5.2 (devel), Q-Chem, Inc., Pleasanton, CA (2019)
 Q-Chem 5.2.2 for Intel X86 EM64T Linux

User input:
--------------------------------------------------------------
$rem
   JOBTYPE  sp
   EXCHANGE   omegaB97X-D
   BASIS   6-311+G(2df,2pd)
   max_scf_cycles   250
   geom_opt_max_cycles   1500
   basis2 6-31G*
   scf_algorithm rca_diis
   SYM_IGNORE  TRUE
   print_input   true
   geom_opt_dmax   80
   pop_mulliken false
   XC_GRID 000075000302
$end

$molecule
0 1
C       1.2099565004     0.0001086319     0.1598316653
C       -0.0000007023     0.0012561260     -0.6399914348
H       1.5119088057     -0.7526560747     0.9008300338
H       1.5068100560     0.7533267939     0.9022621111
H       2.2506813009     -0.0019280447     -0.1881075586
C       -1.2099579496     0.0001088968     0.1598322457
H       0.0000005051     -0.8776695099     -1.2832410595
H       -0.0000007847     0.8787090738     -1.2853556471
H       -1.5119064327     -0.7526557821     0.9008320806
H       -2.2506810845     -0.0019258991     -0.1881110469
H       -1.5068102748     0.7533264542     0.9022636292
--------------------------------------------------------------

             Standard Nuclear Orientation (Angstroms)
    I     Atom           X                Y                Z
 ----------------------------------------------------------------
    1      C       1.2099565004     0.0001086319     0.1598316653
    2      C      -0.0000007023     0.0012561260    -0.6399914348
    3      H       1.5119088057    -0.7526560747     0.9008300338
    4      H       1.5068100560     0.7533267939     0.9022621111
    5      H       2.2506813009    -0.0019280447    -0.1881075586
    6      C      -1.2099579496     0.0001088968     0.1598322457
    7      H       0.0000005051    -0.8776695099    -1.2832410595
    8      H      -0.0000007847     0.8787090738    -1.2853556471
    9      H      -1.5119064327    -0.7526557821     0.9008320806
   10      H      -2.2506810845    -0.0019258991    -0.1881110469
   11      H      -1.5068102748     0.7533264542     0.9022636292
 ----------------------------------------------------------------

    7    -119.0241033970      5.42E-06 Convergence criterion met
    6    -119.0724828792      4.37E-06 Convergence criterion met
 Total energy in the final basis set = -119.07248288

                    Orbital Energies (a.u.)
 --------------------------------------------------------------

 Alpha MOs
 -- Occupied --
-10.2859 -10.2637 -10.2637  -0.9008  -0.7962  -0.7161  -0.5428  -0.5362
 -0.5232  -0.4273  -0.4123  -0.4105  -0.3861

                    Cartesian Multipole Moments
 -----------------------------------------------------------------
    Charge (ESU x 10^10)
                -0.0000
    Dipole Moment (Debye)
         X       0.0000      Y      -0.0047      Z       0.0798
       Tot       0.0800
    Quadrupole Moments (Debye-Ang)
        XX     -20.3412     XY      -0.0000     YY     -22.5039
        XZ       0.0000     YZ       0.0031     ZZ     -21.6585

 Total job time:  47.71s(wall), 132.93s(cpu)
        *  Thank you very much for using Q-Chem.  Have a nice day.  *
