 Q-Chem 5.3 (devel), Q-Chem, Inc., Pleasanton, CA (2020)
 Q-Chem 5.3.0 for Intel X86 EM64T Linux

User input:
--------------------------------------------------------------
$rem
   JOBTYPE  sp
   EXCHANGE   omegaB97X-D
   BASIS   6-311+G(2df,2pd)
   UNRESTRICTED   False
   max_scf_cycles   250
   geom_opt_max_cycles   1500
   basis2 6-31G*
   scf_algorithm rca_diis
   SYM_IGNORE  TRUE
   print_input   true
   geom_opt_dmax   80
   pop_mulliken false
   XC_GRID 000075000302
$end

$molecule
0 1
C       1.2557879439     0.0002974933     0.2369822423
C       -0.0000001750     -0.0004245116     -0.6003037519
H       1.3528120753     -0.8587485070     0.9061162880
H       1.3493156466     0.8581690430     0.9080814397
H       2.1908842453     0.0018187239     -0.3266816805
C       -1.2557883123     0.0002973941     0.2369823434
H       0.0000001077     -0.8760715221     -1.2526087864
H       -0.0000002719     0.8734227110     -1.2550390445
H       -1.3528117803     -0.8587488187     0.9061161672
H       -2.1908840935     0.0018201262     -0.3266823247
H       -1.3493154464     0.8581685340     0.9080821260
$end
--------------------------------------------------------------

             Standard Nuclear Orientation (Angstroms)
    I     Atom           X                Y                Z
 ----------------------------------------------------------------
    1      C       1.2557879439     0.0002974933     0.2369822423
    2      C      -0.0000001750    -0.0004245116    -0.6003037519
    3      H       1.3528120753    -0.8587485070     0.9061162880
    4      H       1.3493156466     0.8581690430     0.9080814397
    5      H       2.1908842453     0.0018187239    -0.3266816805
    6      C      -1.2557883123     0.0002973941     0.2369823434
    7      H       0.0000001077    -0.8760715221    -1.2526087864
    8      H      -0.0000002719     0.8734227110    -1.2550390445
    9      H      -1.3528117803    -0.8587488187     0.9061161672
   10      H      -2.1908840935     0.0018201262    -0.3266823247
   11      H      -1.3493154464     0.8581685340     0.9080821260
 ----------------------------------------------------------------

    7    -119.0997046676      4.44E-06 Convergence criterion met
    5    -119.1429341464      9.71E-06 Convergence criterion met
 Total energy in the final basis set = -119.14293415

                    Orbital Energies (a.u.)
 --------------------------------------------------------------

 Alpha MOs
 -- Occupied --
-10.2766 -10.2643 -10.2643  -0.8837  -0.7792  -0.6840  -0.5436  -0.5247
 -0.4855  -0.4569  -0.4231  -0.4196  -0.4047

                    Cartesian Multipole Moments
 -----------------------------------------------------------------
    Charge (ESU x 10^10)
                -0.0000
    Dipole Moment (Debye)
         X       0.0000      Y      -0.0008      Z      -0.0447
       Tot       0.0447
    Quadrupole Moments (Debye-Ang)
        XX     -21.7423     XY      -0.0000     YY     -21.5618
        XZ       0.0000     YZ      -0.0001     ZZ     -21.7664

 Total job time:  25.52s(wall), 68.13s(cpu)
        *  Thank you very much for using Q-Chem.  Have a nice day.  *
