 Q-Chem 5.3 (devel), Q-Chem, Inc., Pleasanton, CA (2020)
 Q-Chem 5.3.0 for Intel X86 EM64T Linux

User input:
--------------------------------------------------------------
$rem
   JOBTYPE  sp
   EXCHANGE   omegaB97X-D
   BASIS   6-311+G(2df,2pd)
   UNRESTRICTED   False
   max_scf_cycles   250
   geom_opt_max_cycles   1500
   basis2 6-31G*
   scf_algorithm rca_diis
   SYM_IGNORE  TRUE
   print_input   true
   geom_opt_dmax   80
   pop_mulliken false
   XC_GRID 000075000302
$end

$molecule
0 1
C       1.2658137716     -0.0073050388     0.2541843184
C       0.0000000880     -0.0023055592     -0.6036505933
H       1.2838915163     -0.8963072973     0.8861675598
H       1.3350778436     0.8942648851     0.8663075742
H       2.1723699193     0.0073718708     -0.3537979136
C       -1.2658135855     -0.0073058936     0.2541844384
H       0.0000004500     -0.9217012625     -1.1895330677
H       -0.0000005710     0.9279566040     -1.1714938991
H       -1.2838890395     -0.8963085923     0.8861668719
H       -2.1723700739     0.0073765403     -0.3537972418
H       -1.3350803794     0.8942644095     0.8663069717
$end
--------------------------------------------------------------

             Standard Nuclear Orientation (Angstroms)
    I     Atom           X                Y                Z
 ----------------------------------------------------------------
    1      C       1.2658137716    -0.0073050388     0.2541843184
    2      C       0.0000000880    -0.0023055592    -0.6036505933
    3      H       1.2838915163    -0.8963072973     0.8861675598
    4      H       1.3350778436     0.8942648851     0.8663075742
    5      H       2.1723699193     0.0073718708    -0.3537979136
    6      C      -1.2658135855    -0.0073058936     0.2541844384
    7      H       0.0000004500    -0.9217012625    -1.1895330677
    8      H      -0.0000005710     0.9279566040    -1.1714938991
    9      H      -1.2838890395    -0.8963085923     0.8861668719
   10      H      -2.1723700739     0.0073765403    -0.3537972418
   11      H      -1.3350803794     0.8942644095     0.8663069717
 ----------------------------------------------------------------

    7    -119.0996946711      4.95E-06 Convergence criterion met
    5    -119.1427261178      9.58E-06 Convergence criterion met
 Total energy in the final basis set = -119.14272612

                    Orbital Energies (a.u.)
 --------------------------------------------------------------

 Alpha MOs
 -- Occupied --
-10.2751 -10.2644 -10.2644  -0.8815  -0.7766  -0.6743  -0.5568  -0.5192
 -0.4770  -0.4685  -0.4174  -0.4171  -0.4060

                    Cartesian Multipole Moments
 -----------------------------------------------------------------
    Charge (ESU x 10^10)
                -0.0000
    Dipole Moment (Debye)
         X      -0.0000      Y       0.0311      Z      -0.0742
       Tot       0.0804
    Quadrupole Moments (Debye-Ang)
        XX     -22.2082     XY      -0.0000     YY     -20.9655
        XZ      -0.0000     YZ      -0.0466     ZZ     -22.3344

 Total job time:  25.73s(wall), 68.54s(cpu)
        *  Thank you very much for using Q-Chem.  Have a nice day.  *
