 Q-Chem 5.3 (devel), Q-Chem, Inc., Pleasanton, CA (2020)
 Q-Chem 5.3.0 for Intel X86 EM64T Linux

User input:
--------------------------------------------------------------
$rem
   JOBTYPE  sp
   EXCHANGE   omegaB97X-D
   BASIS   6-311+G(2df,2pd)
   UNRESTRICTED   False
   max_scf_cycles   250
   geom_opt_max_cycles   1500
   basis2 6-31G*
   scf_algorithm rca_diis
   SYM_IGNORE  TRUE
   print_input   true
   geom_opt_dmax   80
   pop_mulliken false
   XC_GRID 000075000302
$end

$molecule
0 1
C       1.2609498752     -0.0195520175     0.2427416969
C       0.0000002698     -0.0042511225     -0.6398989673
H       1.2378799903     -0.9241008524     0.8486114016
H       1.3949541066     0.9164341491     0.7891703600
H       2.1862281690     0.0226119918     -0.3394536782
C       -1.2609493254     -0.0195543732     0.2427419933
H       0.0000013991     -0.9970184737     -1.0787314921
H       -0.0000015964     1.0104788990     -1.0224625931
H       -1.2378727459     -0.9241042959     0.8486090775
H       -2.1862284286     0.0226246427     -0.3394512897
H       -1.3949617744     0.9164321186     0.7891685100
$end
--------------------------------------------------------------

             Standard Nuclear Orientation (Angstroms)
    I     Atom           X                Y                Z
 ----------------------------------------------------------------
    1      C       1.2609498752    -0.0195520175     0.2427416969
    2      C       0.0000002698    -0.0042511225    -0.6398989673
    3      H       1.2378799903    -0.9241008524     0.8486114016
    4      H       1.3949541066     0.9164341491     0.7891703600
    5      H       2.1862281690     0.0226119918    -0.3394536782
    6      C      -1.2609493254    -0.0195543732     0.2427419933
    7      H       0.0000013991    -0.9970184737    -1.0787314921
    8      H      -0.0000015964     1.0104788990    -1.0224625931
    9      H      -1.2378727459    -0.9241042959     0.8486090775
   10      H      -2.1862284286     0.0226246427    -0.3394512897
   11      H      -1.3949617744     0.9164321186     0.7891685100
 ----------------------------------------------------------------

    7    -119.0734040203      7.35E-06 Convergence criterion met
    5    -119.1175850324      8.84E-06 Convergence criterion met
 Total energy in the final basis set = -119.11758503

                    Orbital Energies (a.u.)
 --------------------------------------------------------------

 Alpha MOs
 -- Occupied --
-10.2770 -10.2642 -10.2642  -0.8844  -0.7767  -0.6707  -0.5790  -0.5112
 -0.4813  -0.4647  -0.4289  -0.4125  -0.3833

                    Cartesian Multipole Moments
 -----------------------------------------------------------------
    Charge (ESU x 10^10)
                -0.0000
    Dipole Moment (Debye)
         X      -0.0000      Y       0.0858      Z      -0.0370
       Tot       0.0935
    Quadrupole Moments (Debye-Ang)
        XX     -22.2445     XY      -0.0000     YY     -20.3532
        XZ      -0.0000     YZ      -0.1336     ZZ     -23.3054

 Total job time:  25.82s(wall), 68.92s(cpu)
        *  Thank you very much for using Q-Chem.  Have a nice day.  *
