 Q-Chem 5.2 (devel), Q-Chem, Inc., Pleasanton, CA (2019)
 Q-Chem 5.2.2 for Intel X86 EM64T Linux

User input:
--------------------------------------------------------------
$rem
   JOBTYPE  sp
   EXCHANGE   omegaB97X-D
   BASIS   6-311+G(2df,2pd)
   max_scf_cycles   250
   geom_opt_max_cycles   1500
   basis2 6-31G*
   scf_algorithm rca_diis
   SYM_IGNORE  TRUE
   print_input   true
   geom_opt_dmax   80
   pop_mulliken false
   XC_GRID 000075000302
$end

$molecule
0 1
C       1.3675521120     0.0045914984     0.2585169516
C       -0.0000000761     0.0024106544     -0.7222997144
H       1.2954195576     -0.8696383612     0.9109638234
H       1.3039450379     0.8699956672     0.9225993004
H       2.3649593564     -0.0040696445     -0.1850478516
C       -1.3675526086     0.0045913231     0.2585163693
H       0.0000008766     -0.8777504060     -1.3692646455
H       -0.0000000616     0.8735811273     -1.3814546879
H       -1.2954194260     -0.8696378649     0.9109640663
H       -2.3649603932     -0.0040688747     -0.1850471605
H       -1.3039444357     0.8699955469     0.9225985677
--------------------------------------------------------------

             Standard Nuclear Orientation (Angstroms)
    I     Atom           X                Y                Z
 ----------------------------------------------------------------
    1      C       1.3675521120     0.0045914984     0.2585169516
    2      C      -0.0000000761     0.0024106544    -0.7222997144
    3      H       1.2954195576    -0.8696383612     0.9109638234
    4      H       1.3039450379     0.8699956672     0.9225993004
    5      H       2.3649593564    -0.0040696445    -0.1850478516
    6      C      -1.3675526086     0.0045913231     0.2585163693
    7      H       0.0000008766    -0.8777504060    -1.3692646455
    8      H      -0.0000000616     0.8735811273    -1.3814546879
    9      H      -1.2954194260    -0.8696378649     0.9109640663
   10      H      -2.3649603932    -0.0040688747    -0.1850471605
   11      H      -1.3039444357     0.8699955469     0.9225985677
 ----------------------------------------------------------------

    7    -119.0783098874      4.42E-06 Convergence criterion met
    5    -119.1206827933      9.24E-06 Convergence criterion met
 Total energy in the final basis set = -119.12068279

                    Orbital Energies (a.u.)
 --------------------------------------------------------------

 Alpha MOs
 -- Occupied --
-10.2998 -10.2782 -10.2782  -0.8453  -0.7693  -0.6921  -0.5257  -0.5123
 -0.4654  -0.4603  -0.4225  -0.4155  -0.4111

                    Cartesian Multipole Moments
 -----------------------------------------------------------------
    Charge (ESU x 10^10)
                -0.0000
    Dipole Moment (Debye)
         X       0.0000      Y      -0.0121      Z       0.0295
       Tot       0.0319
    Quadrupole Moments (Debye-Ang)
        XX     -21.4213     XY      -0.0000     YY     -21.6938
        XZ      -0.0000     YZ       0.0289     ZZ     -21.9286

 Total job time:  42.71s(wall), 118.43s(cpu)
        *  Thank you very much for using Q-Chem.  Have a nice day.  *
