 Q-Chem 5.3 (devel), Q-Chem, Inc., Pleasanton, CA (2020)
 Q-Chem 5.3.0 for Intel X86 EM64T Linux

User input:
--------------------------------------------------------------
$rem
   JOBTYPE  sp
   EXCHANGE   omegaB97X-D
   BASIS   6-311+G(2df,2pd)
   UNRESTRICTED   False
   max_scf_cycles   250
   geom_opt_max_cycles   1500
   basis2 6-31G*
   scf_algorithm rca_diis
   SYM_IGNORE  TRUE
   print_input   true
   geom_opt_dmax   80
   pop_mulliken false
   XC_GRID 000075000302
$end

$molecule
0 1
C       1.2710597649     -0.0002030981     0.2430988072
C       0.0000000649     -0.0021404160     -0.5996704066
H       1.3094929926     -0.9012717854     0.9034503702
H       1.3040210297     0.9015281753     0.9096102951
H       2.1160093888     0.0039743642     -0.3377002961
C       -1.2710593236     -0.0002030641     0.2430992619
H       -0.0000000199     -0.8683590278     -1.2453873041
H       -0.0000000478     0.8624439817     -1.2508149328
H       -1.3094924184     -0.9012709490     0.9034503333
H       -2.1160108774     0.0039749142     -0.3377009901
H       -1.3040206144     0.9015275710     0.9096098808
$end
--------------------------------------------------------------

             Standard Nuclear Orientation (Angstroms)
    I     Atom           X                Y                Z
 ----------------------------------------------------------------
    1      C       1.2710597649    -0.0002030981     0.2430988072
    2      C       0.0000000649    -0.0021404160    -0.5996704066
    3      H       1.3094929926    -0.9012717854     0.9034503702
    4      H       1.3040210297     0.9015281753     0.9096102951
    5      H       2.1160093888     0.0039743642    -0.3377002961
    6      C      -1.2710593236    -0.0002030641     0.2430992619
    7      H      -0.0000000199    -0.8683590278    -1.2453873041
    8      H      -0.0000000478     0.8624439817    -1.2508149328
    9      H      -1.3094924184    -0.9012709490     0.9034503333
   10      H      -2.1160108774     0.0039749142    -0.3377009901
   11      H      -1.3040206144     0.9015275710     0.9096098808
 ----------------------------------------------------------------

    7    -119.0948568251      4.96E-06 Convergence criterion met
    5    -119.1383627509      9.84E-06 Convergence criterion met
 Total energy in the final basis set = -119.13836275

                    Orbital Energies (a.u.)
 --------------------------------------------------------------

 Alpha MOs
 -- Occupied --
-10.2721 -10.2633 -10.2633  -0.8816  -0.7799  -0.6789  -0.5435  -0.5339
 -0.4817  -0.4564  -0.4254  -0.4178  -0.4058

                    Cartesian Multipole Moments
 -----------------------------------------------------------------
    Charge (ESU x 10^10)
                 0.0000
    Dipole Moment (Debye)
         X       0.0000      Y      -0.0062      Z      -0.1934
       Tot       0.1935
    Quadrupole Moments (Debye-Ang)
        XX     -21.9769     XY      -0.0000     YY     -21.3377
        XZ      -0.0000     YZ      -0.0019     ZZ     -21.8718

 Total job time:  25.69s(wall), 68.55s(cpu)
        *  Thank you very much for using Q-Chem.  Have a nice day.  *
