 Q-Chem 5.3 (devel), Q-Chem, Inc., Pleasanton, CA (2020)
 Q-Chem 5.3.0 for Intel X86 EM64T Linux

User input:
--------------------------------------------------------------
$rem
   JOBTYPE  sp
   EXCHANGE   omegaB97X-D
   BASIS   6-311+G(2df,2pd)
   UNRESTRICTED   False
   max_scf_cycles   250
   geom_opt_max_cycles   1500
   basis2 6-31G*
   scf_algorithm rca_diis
   SYM_IGNORE  TRUE
   print_input   true
   geom_opt_dmax   80
   pop_mulliken false
   XC_GRID 000075000302
$end

$molecule
0 1
C       1.2563481807     -0.0226857021     0.2670296630
C       -0.0112409337     0.0013718956     -0.5886832669
H       1.2074855715     -0.9194763785     0.8798107795
H       1.3989772836     0.9003181552     0.8375025856
H       2.1714542227     0.1108800587     -0.3142542076
C       -1.2774698781     0.0268784297     0.2491184931
H       -0.0157457470     -0.8732144368     -1.2435381400
H       0.0342444389     0.8737867110     -1.2448691160
H       -1.4017384499     -0.8292702113     0.9227934570
H       -2.1484229649     -0.1143682094     -0.3885272408
H       -1.2138917844     0.8457803539     0.9646620120
$end
--------------------------------------------------------------

             Standard Nuclear Orientation (Angstroms)
    I     Atom           X                Y                Z
 ----------------------------------------------------------------
    1      C       1.2563481807    -0.0226857021     0.2670296630
    2      C      -0.0112409337     0.0013718956    -0.5886832669
    3      H       1.2074855715    -0.9194763785     0.8798107795
    4      H       1.3989772836     0.9003181552     0.8375025856
    5      H       2.1714542227     0.1108800587    -0.3142542076
    6      C      -1.2774698781     0.0268784297     0.2491184931
    7      H      -0.0157457470    -0.8732144368    -1.2435381400
    8      H       0.0342444389     0.8737867110    -1.2448691160
    9      H      -1.4017384499    -0.8292702113     0.9227934570
   10      H      -2.1484229649    -0.1143682094    -0.3885272408
   11      H      -1.2138917844     0.8457803539     0.9646620120
 ----------------------------------------------------------------

    7    -119.0886788710      5.28E-06 Convergence criterion met
    6    -119.1323630004      3.95E-06 Convergence criterion met
 Total energy in the final basis set = -119.13236300

                    Orbital Energies (a.u.)
 --------------------------------------------------------------

 Alpha MOs
 -- Occupied --
-10.2742 -10.2655 -10.2654  -0.8819  -0.7788  -0.6792  -0.5493  -0.5329
 -0.4823  -0.4555  -0.4281  -0.4141  -0.3940

                    Cartesian Multipole Moments
 -----------------------------------------------------------------
    Charge (ESU x 10^10)
                 0.0000
    Dipole Moment (Debye)
         X       0.0372      Y      -0.0084      Z      -0.0729
       Tot       0.0823
    Quadrupole Moments (Debye-Ang)
        XX     -22.1483     XY       0.9642     YY     -21.4046
        XZ      -0.0356     YZ      -0.0024     ZZ     -21.9008

 Total job time:  24.98s(wall), 69.65s(cpu)
        *  Thank you very much for using Q-Chem.  Have a nice day.  *
