 Q-Chem 5.3 (devel), Q-Chem, Inc., Pleasanton, CA (2020)
 Q-Chem 5.3.0 for Intel X86 EM64T Linux

User input:
--------------------------------------------------------------
$rem
   JOBTYPE  sp
   EXCHANGE   omegaB97X-D
   BASIS   6-311+G(2df,2pd)
   UNRESTRICTED   False
   max_scf_cycles   250
   geom_opt_max_cycles   1500
   basis2 6-31G*
   scf_algorithm rca_diis
   SYM_IGNORE  TRUE
   print_input   true
   geom_opt_dmax   80
   pop_mulliken false
   XC_GRID 000075000302
$end

$molecule
0 1
C       1.4476434409     -0.0053681919     0.2645480027
C       -0.0000000549     0.0178981525     -0.2807536037
H       1.7109579095     -0.8817947045     0.8580087717
H       1.7608462223     0.8885385509     0.8059113636
H       2.0409255912     -0.0448917985     -0.6528905616
C       -1.4476436719     -0.0053686709     0.2645475927
H       0.0000006497     -0.8200247832     -0.9858319569
H       -0.0000003251     0.8891597385     -0.9435243163
H       -1.7109582249     -0.8817951769     0.8580083166
H       -2.0409262391     -0.0448902531     -0.6528905787
H       -1.7608453581     0.8885378031     0.8059119889
$end
--------------------------------------------------------------

             Standard Nuclear Orientation (Angstroms)
    I     Atom           X                Y                Z
 ----------------------------------------------------------------
    1      C       1.4476434409    -0.0053681919     0.2645480027
    2      C      -0.0000000549     0.0178981525    -0.2807536037
    3      H       1.7109579095    -0.8817947045     0.8580087717
    4      H       1.7608462223     0.8885385509     0.8059113636
    5      H       2.0409255912    -0.0448917985    -0.6528905616
    6      C      -1.4476436719    -0.0053686709     0.2645475927
    7      H       0.0000006497    -0.8200247832    -0.9858319569
    8      H      -0.0000003251     0.8891597385    -0.9435243163
    9      H      -1.7109582249    -0.8817951769     0.8580083166
   10      H      -2.0409262391    -0.0448902531    -0.6528905787
   11      H      -1.7608453581     0.8885378031     0.8059119889
 ----------------------------------------------------------------

    7    -119.0796902944      4.13E-06 Convergence criterion met
    6    -119.1228411339      4.20E-06 Convergence criterion met
 Total energy in the final basis set = -119.12284113

                    Orbital Energies (a.u.)
 --------------------------------------------------------------

 Alpha MOs
 -- Occupied --
-10.2781 -10.2713 -10.2713  -0.8733  -0.7899  -0.6724  -0.5385  -0.5084
 -0.4975  -0.4745  -0.4275  -0.4006  -0.3945

                    Cartesian Multipole Moments
 -----------------------------------------------------------------
    Charge (ESU x 10^10)
                 0.0000
    Dipole Moment (Debye)
         X       0.0000      Y      -0.0040      Z      -0.2088
       Tot       0.2089
    Quadrupole Moments (Debye-Ang)
        XX     -21.8831     XY      -0.0000     YY     -21.4358
        XZ       0.0000     YZ      -0.0091     ZZ     -21.8097

 Total job time:  26.40s(wall), 71.18s(cpu)
        *  Thank you very much for using Q-Chem.  Have a nice day.  *
