 Q-Chem 5.2 (devel), Q-Chem, Inc., Pleasanton, CA (2019)
 Q-Chem 5.2.2 for Intel X86 EM64T Linux

User input:
--------------------------------------------------------------
$rem
   JOBTYPE  sp
   EXCHANGE   omegaB97X-D
   BASIS   6-311+G(2df,2pd)
   max_scf_cycles   250
   geom_opt_max_cycles   1500
   basis2 6-31G*
   scf_algorithm rca_diis
   SYM_IGNORE  TRUE
   print_input   true
   geom_opt_dmax   80
   pop_mulliken false
   XC_GRID 000075000302
$end

$molecule
0 1
C       1.2727096926     -0.0000020155     0.2736489449
C       0.0000007343     0.0000130977     -0.5785053668
H       1.3038200026     -0.8083136709     0.8618973783
H       1.3038216247     0.8083581696     0.8619496128
H       2.1038886888     -0.0000121024     -0.3064280921
C       -1.2727079492     -0.0000018087     0.2736477111
H       0.0000009046     -0.8709583658     -1.2313400087
H       0.0000009198     0.8708848185     -1.2312486635
H       -1.3038193310     -0.8083228231     0.8619033334
H       -2.1038945464     -0.0000112159     -0.3064345888
H       -1.3038208014     0.8083665826     0.8619547582
--------------------------------------------------------------

             Standard Nuclear Orientation (Angstroms)
    I     Atom           X                Y                Z
 ----------------------------------------------------------------
    1      C       1.2727096926    -0.0000020155     0.2736489449
    2      C       0.0000007343     0.0000130977    -0.5785053668
    3      H       1.3038200026    -0.8083136709     0.8618973783
    4      H       1.3038216247     0.8083581696     0.8619496128
    5      H       2.1038886888    -0.0000121024    -0.3064280921
    6      C      -1.2727079492    -0.0000018087     0.2736477111
    7      H       0.0000009046    -0.8709583658    -1.2313400087
    8      H       0.0000009198     0.8708848185    -1.2312486635
    9      H      -1.3038193310    -0.8083228231     0.8619033334
   10      H      -2.1038945464    -0.0000112159    -0.3064345888
   11      H      -1.3038208014     0.8083665826     0.8619547582
 ----------------------------------------------------------------

    7    -119.0660570272      5.88E-06 Convergence criterion met
    6    -119.1133108226      4.08E-06 Convergence criterion met
 Total energy in the final basis set = -119.11331082

                    Orbital Energies (a.u.)
 --------------------------------------------------------------

 Alpha MOs
 -- Occupied --
-10.2691 -10.2340 -10.2340  -0.8869  -0.7994  -0.6907  -0.5529  -0.5327
 -0.4945  -0.4826  -0.4201  -0.4199  -0.4136

                    Cartesian Multipole Moments
 -----------------------------------------------------------------
    Charge (ESU x 10^10)
                -0.0000
    Dipole Moment (Debye)
         X       0.0000      Y       0.0000      Z       0.0440
       Tot       0.0440
    Quadrupole Moments (Debye-Ang)
        XX     -21.4807     XY      -0.0000     YY     -20.9633
        XZ       0.0000     YZ      -0.0001     ZZ     -21.4126

 Total job time:  48.90s(wall), 136.61s(cpu)
        *  Thank you very much for using Q-Chem.  Have a nice day.  *
