 Q-Chem 5.3 (devel), Q-Chem, Inc., Pleasanton, CA (2020)
 Q-Chem 5.3.0 for Intel X86 EM64T Linux

User input:
--------------------------------------------------------------
$rem
   JOBTYPE  sp
   EXCHANGE   omegaB97X-D
   BASIS   6-311+G(2df,2pd)
   UNRESTRICTED   False
   max_scf_cycles   250
   geom_opt_max_cycles   1500
   basis2 6-31G*
   scf_algorithm rca_diis
   SYM_IGNORE  TRUE
   print_input   true
   geom_opt_dmax   80
   pop_mulliken false
   XC_GRID 000075000302
$end

$molecule
0 1
C       1.2669171557     -0.0421147937     0.2607804340
C       0.0000009616     -0.0423603150     -0.5862047776
H       1.3054021182     -0.8417523451     0.8489032317
H       1.3040729365     0.9166106859     0.9581423072
H       2.1682636622     -0.0274947880     -0.3616156546
C       -1.2669106320     -0.0421154483     0.2607871131
H       0.0000000580     -0.8586937428     -1.2003238980
H       -0.0000002269     0.8905521846     -1.2848368365
H       -1.3053932483     -0.8417376409     0.8489001040
H       -2.1682854449     -0.0274971008     -0.3616257517
H       -1.3040674007     0.9166039701     0.9581387471
$end
--------------------------------------------------------------

             Standard Nuclear Orientation (Angstroms)
    I     Atom           X                Y                Z
 ----------------------------------------------------------------
    1      C       1.2669171557    -0.0421147937     0.2607804340
    2      C       0.0000009616    -0.0423603150    -0.5862047776
    3      H       1.3054021182    -0.8417523451     0.8489032317
    4      H       1.3040729365     0.9166106859     0.9581423072
    5      H       2.1682636622    -0.0274947880    -0.3616156546
    6      C      -1.2669106320    -0.0421154483     0.2607871131
    7      H       0.0000000580    -0.8586937428    -1.2003238980
    8      H      -0.0000002269     0.8905521846    -1.2848368365
    9      H      -1.3053932483    -0.8417376409     0.8489001040
   10      H      -2.1682854449    -0.0274971008    -0.3616257517
   11      H      -1.3040674007     0.9166039701     0.9581387471
 ----------------------------------------------------------------

    7    -119.0727067324      4.70E-06 Convergence criterion met
    5    -119.1168286607      9.98E-06 Convergence criterion met
 Total energy in the final basis set = -119.11682866

                    Orbital Energies (a.u.)
 --------------------------------------------------------------

 Alpha MOs
 -- Occupied --
-10.2746 -10.2645 -10.2645  -0.8837  -0.7805  -0.6820  -0.5473  -0.5243
 -0.4938  -0.4540  -0.4184  -0.4174  -0.4065

                    Cartesian Multipole Moments
 -----------------------------------------------------------------
    Charge (ESU x 10^10)
                -0.0000
    Dipole Moment (Debye)
         X       0.0000      Y      -0.3011      Z      -0.0948
       Tot       0.3157
    Quadrupole Moments (Debye-Ang)
        XX     -22.1686     XY      -0.0000     YY     -21.3432
        XZ      -0.0000     YZ       0.0047     ZZ     -21.8762

 Total job time:  25.01s(wall), 67.36s(cpu)
        *  Thank you very much for using Q-Chem.  Have a nice day.  *
