 Q-Chem 5.3 (devel), Q-Chem, Inc., Pleasanton, CA (2020)
 Q-Chem 5.3.0 for Intel X86 EM64T Linux

User input:
--------------------------------------------------------------
$rem
   JOBTYPE  sp
   EXCHANGE   omegaB97X-D
   BASIS   6-311+G(2df,2pd)
   UNRESTRICTED   False
   max_scf_cycles   250
   geom_opt_max_cycles   1500
   basis2 6-31G*
   scf_algorithm rca_diis
   SYM_IGNORE  TRUE
   print_input   true
   geom_opt_dmax   80
   pop_mulliken false
   XC_GRID 000075000302
$end

$molecule
0 1
C       1.2522677827     0.0961910345     0.2626059020
C       -0.0000000403     0.1781931163     -0.5973786571
H       1.0880965689     -0.8843266780     0.7203955464
H       1.4632543936     0.8110697760     1.0559322015
H       2.1392866480     -0.0396376017     -0.3579416108
C       -1.2522680280     0.0961910863     0.2626055700
H       -0.0000000991     -0.8786639426     -0.8904330350
H       0.0000002040     0.7338783469     -1.5331269855
H       -1.0880964194     -0.8843267272     0.7203949606
H       -2.1392871937     -0.0396367741     -0.3579416592
H       -1.4632538773     0.8110690295     1.0559327860
$end
--------------------------------------------------------------

             Standard Nuclear Orientation (Angstroms)
    I     Atom           X                Y                Z
 ----------------------------------------------------------------
    1      C       1.2522677827     0.0961910345     0.2626059020
    2      C      -0.0000000403     0.1781931163    -0.5973786571
    3      H       1.0880965689    -0.8843266780     0.7203955464
    4      H       1.4632543936     0.8110697760     1.0559322015
    5      H       2.1392866480    -0.0396376017    -0.3579416108
    6      C      -1.2522680280     0.0961910863     0.2626055700
    7      H      -0.0000000991    -0.8786639426    -0.8904330350
    8      H       0.0000002040     0.7338783469    -1.5331269855
    9      H      -1.0880964194    -0.8843267272     0.7203949606
   10      H      -2.1392871937    -0.0396367741    -0.3579416592
   11      H      -1.4632538773     0.8110690295     1.0559327860
 ----------------------------------------------------------------

    7    -119.0715819802      4.96E-06 Convergence criterion met
    6    -119.1157309298      3.77E-06 Convergence criterion met
 Total energy in the final basis set = -119.11573093

                    Orbital Energies (a.u.)
 --------------------------------------------------------------

 Alpha MOs
 -- Occupied --
-10.2761 -10.2671 -10.2670  -0.8921  -0.7784  -0.6766  -0.5568  -0.5223
 -0.4929  -0.4521  -0.4268  -0.4155  -0.3906

                    Cartesian Multipole Moments
 -----------------------------------------------------------------
    Charge (ESU x 10^10)
                -0.0000
    Dipole Moment (Debye)
         X       0.0000      Y      -0.2534      Z      -0.1198
       Tot       0.2803
    Quadrupole Moments (Debye-Ang)
        XX     -22.2180     XY      -0.0000     YY     -21.6936
        XZ       0.0000     YZ       0.1986     ZZ     -21.6797

 Total job time:  27.77s(wall), 75.50s(cpu)
        *  Thank you very much for using Q-Chem.  Have a nice day.  *
