 Q-Chem 5.3 (devel), Q-Chem, Inc., Pleasanton, CA (2020)
 Q-Chem 5.3.0 for Intel X86 EM64T Linux

User input:
--------------------------------------------------------------
$rem
   JOBTYPE  sp
   EXCHANGE   omegaB97X-D
   BASIS   6-311+G(2df,2pd)
   UNRESTRICTED   False
   max_scf_cycles   250
   geom_opt_max_cycles   1500
   basis2 6-31G*
   scf_algorithm rca_diis
   SYM_IGNORE  TRUE
   print_input   true
   geom_opt_dmax   80
   pop_mulliken false
   XC_GRID 000075000302
$end

$molecule
0 1
C       1.3382363902     -0.0057688311     0.3093469415
C       -0.1065035754     0.0005100209     -0.5869147405
H       1.3832071159     -0.8917122576     0.9496467709
H       1.3602414514     0.8538205265     0.9858690370
H       2.2591754702     0.0171712881     -0.2742863036
C       -1.1992571718     0.0061139544     0.2022269606
H       -0.2454164730     -0.8722481270     -1.2293734038
H       -0.2356298174     0.8739258468     -1.2305201219
H       -1.2275740235     -0.8688207311     0.8511841338
H       -2.0727123914     -0.0192334902     -0.4499965916
H       -1.2537670356     0.9062424663     0.8138623364
$end
--------------------------------------------------------------

             Standard Nuclear Orientation (Angstroms)
    I     Atom           X                Y                Z
 ----------------------------------------------------------------
    1      C       1.3382363902    -0.0057688311     0.3093469415
    2      C      -0.1065035754     0.0005100209    -0.5869147405
    3      H       1.3832071159    -0.8917122576     0.9496467709
    4      H       1.3602414514     0.8538205265     0.9858690370
    5      H       2.2591754702     0.0171712881    -0.2742863036
    6      C      -1.1992571718     0.0061139544     0.2022269606
    7      H      -0.2454164730    -0.8722481270    -1.2293734038
    8      H      -0.2356298174     0.8739258468    -1.2305201219
    9      H      -1.2275740235    -0.8688207311     0.8511841338
   10      H      -2.0727123914    -0.0192334902    -0.4499965916
   11      H      -1.2537670356     0.9062424663     0.8138623364
 ----------------------------------------------------------------

    7    -119.0600020918      5.79E-06 Convergence criterion met
    6    -119.1047370973      4.94E-06 Convergence criterion met
 Total energy in the final basis set = -119.10473710

                    Orbital Energies (a.u.)
 --------------------------------------------------------------

 Alpha MOs
 -- Occupied --
-10.2769 -10.2725 -10.2515  -0.9037  -0.7751  -0.6709  -0.5582  -0.5340
 -0.4805  -0.4642  -0.4422  -0.3991  -0.3896

                    Cartesian Multipole Moments
 -----------------------------------------------------------------
    Charge (ESU x 10^10)
                -0.0000
    Dipole Moment (Debye)
         X      -0.1253      Y      -0.0006      Z      -0.0763
       Tot       0.1466
    Quadrupole Moments (Debye-Ang)
        XX     -22.0328     XY      -0.0020     YY     -21.3460
        XZ       0.8321     YZ      -0.0048     ZZ     -21.9187

 Total job time:  27.58s(wall), 74.33s(cpu)
        *  Thank you very much for using Q-Chem.  Have a nice day.  *
