 Q-Chem 5.3 (devel), Q-Chem, Inc., Pleasanton, CA (2020)
 Q-Chem 5.3.0 for Intel X86 EM64T Linux

User input:
--------------------------------------------------------------
$rem
   JOBTYPE  sp
   EXCHANGE   omegaB97X-D
   BASIS   6-311+G(2df,2pd)
   UNRESTRICTED   False
   max_scf_cycles   250
   geom_opt_max_cycles   1500
   basis2 6-31G*
   scf_algorithm rca_diis
   SYM_IGNORE  TRUE
   print_input   true
   geom_opt_dmax   80
   pop_mulliken false
   XC_GRID 000075000302
$end

$molecule
0 1
C       1.2677872577     0.0002241548     0.2641712267
C       0.0000000719     -0.0005450022     -0.5748139060
H       1.3065004381     -0.8831699487     0.9099932330
H       1.3045718615     0.8825142865     0.9112314032
H       2.1566272276     0.0016962595     -0.3484108199
C       -1.2677870738     0.0002241821     0.2641711321
H       0.0000000815     -0.9327768945     -1.2780920971
H       0.0000000388     0.9307924439     -1.2800193656
H       -1.3065003754     -0.8831708170     0.9099938227
H       -2.1566278182     0.0016969661     -0.3484114338
H       -1.3045717702     0.8825150354     0.9112318237
$end
--------------------------------------------------------------

             Standard Nuclear Orientation (Angstroms)
    I     Atom           X                Y                Z
 ----------------------------------------------------------------
    1      C       1.2677872577     0.0002241548     0.2641712267
    2      C       0.0000000719    -0.0005450022    -0.5748139060
    3      H       1.3065004381    -0.8831699487     0.9099932330
    4      H       1.3045718615     0.8825142865     0.9112314032
    5      H       2.1566272276     0.0016962595    -0.3484108199
    6      C      -1.2677870738     0.0002241821     0.2641711321
    7      H       0.0000000815    -0.9327768945    -1.2780920971
    8      H       0.0000000388     0.9307924439    -1.2800193656
    9      H      -1.3065003754    -0.8831708170     0.9099938227
   10      H      -2.1566278182     0.0016969661    -0.3484114338
   11      H      -1.3045717702     0.8825150354     0.9112318237
 ----------------------------------------------------------------

    7    -119.0976839466      4.44E-06 Convergence criterion met
    6    -119.1400394909      4.34E-06 Convergence criterion met
 Total energy in the final basis set = -119.14003949

                    Orbital Energies (a.u.)
 --------------------------------------------------------------

 Alpha MOs
 -- Occupied --
-10.2898 -10.2659 -10.2659  -0.8791  -0.7795  -0.6675  -0.5401  -0.5266
 -0.4838  -0.4640  -0.4228  -0.4142  -0.3986

                    Cartesian Multipole Moments
 -----------------------------------------------------------------
    Charge (ESU x 10^10)
                 0.0000
    Dipole Moment (Debye)
         X       0.0000      Y      -0.0001      Z       0.0125
       Tot       0.0125
    Quadrupole Moments (Debye-Ang)
        XX     -22.0887     XY      -0.0000     YY     -21.4753
        XZ       0.0000     YZ      -0.0000     ZZ     -22.0886

 Total job time:  26.88s(wall), 73.06s(cpu)
        *  Thank you very much for using Q-Chem.  Have a nice day.  *
