 Q-Chem 5.3 (devel), Q-Chem, Inc., Pleasanton, CA (2020)
 Q-Chem 5.3.0 for Intel X86 EM64T Linux

User input:
--------------------------------------------------------------
$rem
   JOBTYPE  sp
   EXCHANGE   omegaB97X-D
   BASIS   6-311+G(2df,2pd)
   UNRESTRICTED   False
   max_scf_cycles   250
   geom_opt_max_cycles   1500
   basis2 6-31G*
   scf_algorithm rca_diis
   SYM_IGNORE  TRUE
   print_input   true
   geom_opt_dmax   80
   pop_mulliken false
   XC_GRID 000075000302
$end

$molecule
0 1
C       1.3202255348     -0.0043654538     0.2975359064
C       -0.0798861579     0.0002872998     -0.5870418497
H       1.3637329058     -0.8890345094     0.9387747242
H       1.3462172907     0.8606286889     0.9660773280
H       2.2353387075     0.0130851335     -0.2953435549
C       -1.2159165057     0.0045605769     0.2172872806
H       -0.1842231923     -0.8729638760     -1.2353495497
H       -0.1768799516     0.8739060709     -1.2359941811
H       -1.2469465251     -0.8718462483     0.8650408087
H       -2.0953841032     -0.0142448504     -0.4270614238
H       -1.2662780636     0.8999878338     0.8371195303
$end
--------------------------------------------------------------

             Standard Nuclear Orientation (Angstroms)
    I     Atom           X                Y                Z
 ----------------------------------------------------------------
    1      C       1.3202255348    -0.0043654538     0.2975359064
    2      C      -0.0798861579     0.0002872998    -0.5870418497
    3      H       1.3637329058    -0.8890345094     0.9387747242
    4      H       1.3462172907     0.8606286889     0.9660773280
    5      H       2.2353387075     0.0130851335    -0.2953435549
    6      C      -1.2159165057     0.0045605769     0.2172872806
    7      H      -0.1842231923    -0.8729638760    -1.2353495497
    8      H      -0.1768799516     0.8739060709    -1.2359941811
    9      H      -1.2469465251    -0.8718462483     0.8650408087
   10      H      -2.0953841032    -0.0142448504    -0.4270614238
   11      H      -1.2662780636     0.8999878338     0.8371195303
 ----------------------------------------------------------------

    7    -119.0794466863      5.21E-06 Convergence criterion met
    6    -119.1233562979      4.63E-06 Convergence criterion met
 Total energy in the final basis set = -119.12335630

                    Orbital Energies (a.u.)
 --------------------------------------------------------------

 Alpha MOs
 -- Occupied --
-10.2744 -10.2731 -10.2548  -0.8941  -0.7759  -0.6738  -0.5527  -0.5297
 -0.4813  -0.4641  -0.4367  -0.4027  -0.3971

                    Cartesian Multipole Moments
 -----------------------------------------------------------------
    Charge (ESU x 10^10)
                -0.0000
    Dipole Moment (Debye)
         X      -0.0855      Y      -0.0003      Z      -0.0793
       Tot       0.1166
    Quadrupole Moments (Debye-Ang)
        XX     -22.0901     XY      -0.0022     YY     -21.3529
        XZ       0.6261     YZ      -0.0027     ZZ     -21.8853

 Total job time:  28.13s(wall), 75.67s(cpu)
        *  Thank you very much for using Q-Chem.  Have a nice day.  *
