 Q-Chem 5.3 (devel), Q-Chem, Inc., Pleasanton, CA (2020)
 Q-Chem 5.3.0 for Intel X86 EM64T Linux

User input:
--------------------------------------------------------------
$rem
   JOBTYPE  sp
   EXCHANGE   omegaB97X-D
   BASIS   6-311+G(2df,2pd)
   UNRESTRICTED   False
   max_scf_cycles   250
   geom_opt_max_cycles   1500
   basis2 6-31G*
   scf_algorithm rca_diis
   SYM_IGNORE  TRUE
   print_input   true
   geom_opt_dmax   80
   pop_mulliken false
   XC_GRID 000075000302
$end

$molecule
0 1
C       1.2594582683     0.0008233823     0.2922839518
C       -0.0000001302     0.0046691668     -0.5622366251
H       1.2966524971     -0.8389026015     0.9047413540
H       1.3070201329     0.8387785201     0.8927715527
H       2.2612406541     -0.0093805518     -0.4052761252
C       -1.2594591522     0.0008232262     0.2922830614
H       0.0000000570     -0.8844130808     -1.2383455371
H       -0.0000001008     0.8971066916     -1.2274156699
H       -1.2966536104     -0.8389043061     0.9047414510
H       -2.2612376729     -0.0093795326     -0.4052747320
H       -1.3070210035     0.8387797520     0.8927723374
$end
--------------------------------------------------------------

             Standard Nuclear Orientation (Angstroms)
    I     Atom           X                Y                Z
 ----------------------------------------------------------------
    1      C       1.2594582683     0.0008233823     0.2922839518
    2      C      -0.0000001302     0.0046691668    -0.5622366251
    3      H       1.2966524971    -0.8389026015     0.9047413540
    4      H       1.3070201329     0.8387785201     0.8927715527
    5      H       2.2612406541    -0.0093805518    -0.4052761252
    6      C      -1.2594591522     0.0008232262     0.2922830614
    7      H       0.0000000570    -0.8844130808    -1.2383455371
    8      H      -0.0000001008     0.8971066916    -1.2274156699
    9      H      -1.2966536104    -0.8389043061     0.9047414510
   10      H      -2.2612376729    -0.0093795326    -0.4052747320
   11      H      -1.3070210035     0.8387797520     0.8927723374
 ----------------------------------------------------------------

    7    -119.0777742472      4.20E-06 Convergence criterion met
    5    -119.1211738928      1.00E-05 Convergence criterion met
 Total energy in the final basis set = -119.12117389

                    Orbital Energies (a.u.)
 --------------------------------------------------------------

 Alpha MOs
 -- Occupied --
-10.2796 -10.2673 -10.2673  -0.8834  -0.7781  -0.6798  -0.5526  -0.5065
 -0.4851  -0.4796  -0.4167  -0.4112  -0.4051

                    Cartesian Multipole Moments
 -----------------------------------------------------------------
    Charge (ESU x 10^10)
                 0.0000
    Dipole Moment (Debye)
         X      -0.0000      Y       0.0115      Z       0.1413
       Tot       0.1417
    Quadrupole Moments (Debye-Ang)
        XX     -22.7041     XY      -0.0000     YY     -21.4150
        XZ       0.0000     YZ       0.0045     ZZ     -21.7303

 Total job time:  25.72s(wall), 68.53s(cpu)
        *  Thank you very much for using Q-Chem.  Have a nice day.  *
