 Q-Chem 5.3 (devel), Q-Chem, Inc., Pleasanton, CA (2020)
 Q-Chem 5.3.0 for Intel X86 EM64T Linux

User input:
--------------------------------------------------------------
$rem
   JOBTYPE  sp
   EXCHANGE   omegaB97X-D
   BASIS   6-311+G(2df,2pd)
   UNRESTRICTED   False
   max_scf_cycles   250
   geom_opt_max_cycles   1500
   basis2 6-31G*
   scf_algorithm rca_diis
   SYM_IGNORE  TRUE
   print_input   true
   geom_opt_dmax   80
   pop_mulliken false
   XC_GRID 000075000302
$end

$molecule
0 1
C       1.2290826418     -0.1337150335     0.3068971575
C       -0.0174333377     -0.0030540613     -0.5838986833
H       1.5437772401     -0.8314612597     1.0784899706
H       1.0808558763     0.8534308290     0.7577711292
H       2.0521802398     0.0621597978     -0.3836155736
C       -1.2910402531     0.1602998242     0.2115015693
H       -0.3104978716     -0.8314568114     -1.2332205029
H       0.4094192879     0.7645889739     -1.2337275733
H       -1.0330036444     -0.8125967093     0.6474516066
H       -2.2310159729     -0.0351100834     -0.3021580328
H       -1.4323242668     0.8069151999     1.0755539517
$end
--------------------------------------------------------------

             Standard Nuclear Orientation (Angstroms)
    I     Atom           X                Y                Z
 ----------------------------------------------------------------
    1      C       1.2290826418    -0.1337150335     0.3068971575
    2      C      -0.0174333377    -0.0030540613    -0.5838986833
    3      H       1.5437772401    -0.8314612597     1.0784899706
    4      H       1.0808558763     0.8534308290     0.7577711292
    5      H       2.0521802398     0.0621597978    -0.3836155736
    6      C      -1.2910402531     0.1602998242     0.2115015693
    7      H      -0.3104978716    -0.8314568114    -1.2332205029
    8      H       0.4094192879     0.7645889739    -1.2337275733
    9      H      -1.0330036444    -0.8125967093     0.6474516066
   10      H      -2.2310159729    -0.0351100834    -0.3021580328
   11      H      -1.4323242668     0.8069151999     1.0755539517
 ----------------------------------------------------------------

    7    -119.0457173892      5.54E-06 Convergence criterion met
    6    -119.0907164958      4.58E-06 Convergence criterion met
 Total energy in the final basis set = -119.09071650

                    Orbital Energies (a.u.)
 --------------------------------------------------------------

 Alpha MOs
 -- Occupied --
-10.2855 -10.2684 -10.2663  -0.8965  -0.7863  -0.6780  -0.5606  -0.5360
 -0.4778  -0.4673  -0.4227  -0.4034  -0.3873

                    Cartesian Multipole Moments
 -----------------------------------------------------------------
    Charge (ESU x 10^10)
                 0.0000
    Dipole Moment (Debye)
         X       0.0437      Y      -0.0987      Z       0.0106
       Tot       0.1084
    Quadrupole Moments (Debye-Ang)
        XX     -21.8491     XY       0.2411     YY     -22.0461
        XZ       0.0316     YZ       0.1291     ZZ     -21.8408

 Total job time:  27.77s(wall), 75.33s(cpu)
        *  Thank you very much for using Q-Chem.  Have a nice day.  *
