 Q-Chem 5.3 (devel), Q-Chem, Inc., Pleasanton, CA (2020)
 Q-Chem 5.3.0 for Intel X86 EM64T Linux

User input:
--------------------------------------------------------------
$rem
   JOBTYPE  sp
   EXCHANGE   omegaB97X-D
   BASIS   6-311+G(2df,2pd)
   UNRESTRICTED   False
   max_scf_cycles   250
   geom_opt_max_cycles   1500
   basis2 6-31G*
   scf_algorithm rca_diis
   SYM_IGNORE  TRUE
   print_input   true
   geom_opt_dmax   80
   pop_mulliken false
   XC_GRID 000075000302
$end

$molecule
0 1
C       1.3101615682     -0.0671541070     0.2117726423
C       0.0311761907     0.0083446329     -0.5916818718
H       1.3164371515     -0.9434365922     0.8629096374
H       1.3159223560     0.4492600284     1.1828473379
H       2.0829976065     0.3557717551     -0.4190572111
C       -1.2175446667     0.0940617887     0.2982745761
H       -0.0972828243     -0.8628284576     -1.2384523443
H       0.0609066429     0.8775997115     -1.2529444767
H       -1.2818522263     -0.7835803608     0.9448574009
H       -2.1575028846     -0.2827716294     -0.1244874889
H       -1.3634189745     1.1547338965     0.4670068171
$end
--------------------------------------------------------------

             Standard Nuclear Orientation (Angstroms)
    I     Atom           X                Y                Z
 ----------------------------------------------------------------
    1      C       1.3101615682    -0.0671541070     0.2117726423
    2      C       0.0311761907     0.0083446329    -0.5916818718
    3      H       1.3164371515    -0.9434365922     0.8629096374
    4      H       1.3159223560     0.4492600284     1.1828473379
    5      H       2.0829976065     0.3557717551    -0.4190572111
    6      C      -1.2175446667     0.0940617887     0.2982745761
    7      H      -0.0972828243    -0.8628284576    -1.2384523443
    8      H       0.0609066429     0.8775997115    -1.2529444767
    9      H      -1.2818522263    -0.7835803608     0.9448574009
   10      H      -2.1575028846    -0.2827716294    -0.1244874889
   11      H      -1.3634189745     1.1547338965     0.4670068171
 ----------------------------------------------------------------

    7    -119.0432001453      7.73E-06 Convergence criterion met
    6    -119.0895032733      4.21E-06 Convergence criterion met
 Total energy in the final basis set = -119.08950327

                    Orbital Energies (a.u.)
 --------------------------------------------------------------

 Alpha MOs
 -- Occupied --
-10.2741 -10.2662 -10.2653  -0.8838  -0.7838  -0.6850  -0.5613  -0.5399
 -0.4876  -0.4591  -0.4269  -0.3876  -0.3776

                    Cartesian Multipole Moments
 -----------------------------------------------------------------
    Charge (ESU x 10^10)
                -0.0000
    Dipole Moment (Debye)
         X      -0.1845      Y      -0.0396      Z      -0.0217
       Tot       0.1899
    Quadrupole Moments (Debye-Ang)
        XX     -22.4104     XY       1.0074     YY     -21.2595
        XZ       0.1210     YZ      -0.9122     ZZ     -22.0665

 Total job time:  27.76s(wall), 75.30s(cpu)
        *  Thank you very much for using Q-Chem.  Have a nice day.  *
