 Q-Chem 5.3 (devel), Q-Chem, Inc., Pleasanton, CA (2020)
 Q-Chem 5.3.0 for Intel X86 EM64T Linux

User input:
--------------------------------------------------------------
$rem
   JOBTYPE  sp
   EXCHANGE   omegaB97X-D
   BASIS   6-311+G(2df,2pd)
   UNRESTRICTED   False
   max_scf_cycles   250
   geom_opt_max_cycles   1500
   basis2 6-31G*
   scf_algorithm rca_diis
   SYM_IGNORE  TRUE
   print_input   true
   geom_opt_dmax   80
   pop_mulliken false
   XC_GRID 000075000302
$end

$molecule
0 1
C       1.2673646375     0.1495433528     0.2556020277
C       0.0059699279     -0.0066229223     -0.5803894613
H       1.2563094387     -0.7778167350     0.8331071765
H       1.3518768869     0.9868486169     0.9491834084
H       2.1645782466     0.0149579225     -0.3500139481
C       -1.2691477797     -0.1484311431     0.2472786677
H       -0.4144457426     -0.7879086452     -1.2180414096
H       0.3995067771     0.7738690055     -1.2359180676
H       -1.3698634595     -0.9767649917     0.9504428319
H       -2.1555331281     0.0133796197     -0.3663232162
H       -1.2366158654     0.7589465859     0.8561170095
$end
--------------------------------------------------------------

             Standard Nuclear Orientation (Angstroms)
    I     Atom           X                Y                Z
 ----------------------------------------------------------------
    1      C       1.2673646375     0.1495433528     0.2556020277
    2      C       0.0059699279    -0.0066229223    -0.5803894613
    3      H       1.2563094387    -0.7778167350     0.8331071765
    4      H       1.3518768869     0.9868486169     0.9491834084
    5      H       2.1645782466     0.0149579225    -0.3500139481
    6      C      -1.2691477797    -0.1484311431     0.2472786677
    7      H      -0.4144457426    -0.7879086452    -1.2180414096
    8      H       0.3995067771     0.7738690055    -1.2359180676
    9      H      -1.3698634595    -0.9767649917     0.9504428319
   10      H      -2.1555331281     0.0133796197    -0.3663232162
   11      H      -1.2366158654     0.7589465859     0.8561170095
 ----------------------------------------------------------------

    7    -119.0244993666      7.48E-06 Convergence criterion met
    6    -119.0703061220      4.85E-06 Convergence criterion met
 Total energy in the final basis set = -119.07030612

                    Orbital Energies (a.u.)
 --------------------------------------------------------------

 Alpha MOs
 -- Occupied --
-10.2725 -10.2705 -10.2704  -0.8897  -0.7879  -0.6783  -0.5524  -0.5301
 -0.5109  -0.4762  -0.4360  -0.3980  -0.3407

                    Cartesian Multipole Moments
 -----------------------------------------------------------------
    Charge (ESU x 10^10)
                -0.0000
    Dipole Moment (Debye)
         X      -0.0038      Y       0.0060      Z       0.0331
       Tot       0.0338
    Quadrupole Moments (Debye-Ang)
        XX     -21.6872     XY       1.0714     YY     -21.8305
        XZ       0.0222     YZ      -0.0200     ZZ     -22.2192

 Total job time:  28.17s(wall), 75.98s(cpu)
        *  Thank you very much for using Q-Chem.  Have a nice day.  *
