 Q-Chem 5.3 (devel), Q-Chem, Inc., Pleasanton, CA (2020)
 Q-Chem 5.3.0 for Intel X86 EM64T Linux

User input:
--------------------------------------------------------------
$rem
   JOBTYPE  sp
   EXCHANGE   omegaB97X-D
   BASIS   6-311+G(2df,2pd)
   UNRESTRICTED   False
   max_scf_cycles   250
   geom_opt_max_cycles   1500
   basis2 6-31G*
   scf_algorithm rca_diis
   SYM_IGNORE  TRUE
   print_input   true
   geom_opt_dmax   80
   pop_mulliken false
   XC_GRID 000075000302
$end

$molecule
0 1
C       1.1912157123     0.0024187726     0.2595264511
C       0.0000000239     -0.0068533886     -0.6786958547
H       1.1535490998     -0.8811674789     0.9005202547
H       1.1297736295     0.8757986419     0.9124073140
H       2.1612210453     0.0175034073     -0.2364059975
C       -1.1912155944     0.0024188792     0.2595265521
H       -0.0000002264     -0.8902115377     -1.3202616437
H       0.0000000432     0.8679580157     -1.3320936225
H       -1.1535489783     -0.8811673709     0.9005203295
H       -2.1612208937     0.0175038423     -0.2364060818
H       -1.1297739217     0.8757988831     0.9124073177
$end
--------------------------------------------------------------

             Standard Nuclear Orientation (Angstroms)
    I     Atom           X                Y                Z
 ----------------------------------------------------------------
    1      C       1.1912157123     0.0024187726     0.2595264511
    2      C       0.0000000239    -0.0068533886    -0.6786958547
    3      H       1.1535490998    -0.8811674789     0.9005202547
    4      H       1.1297736295     0.8757986419     0.9124073140
    5      H       2.1612210453     0.0175034073    -0.2364059975
    6      C      -1.1912155944     0.0024188792     0.2595265521
    7      H      -0.0000002264    -0.8902115377    -1.3202616437
    8      H       0.0000000432     0.8679580157    -1.3320936225
    9      H      -1.1535489783    -0.8811673709     0.9005203295
   10      H      -2.1612208937     0.0175038423    -0.2364060818
   11      H      -1.1297739217     0.8757988831     0.9124073177
 ----------------------------------------------------------------

    7    -119.0988317098      4.83E-06 Convergence criterion met
    5    -119.1419601185      8.70E-06 Convergence criterion met
 Total energy in the final basis set = -119.14196012

                    Orbital Energies (a.u.)
 --------------------------------------------------------------

 Alpha MOs
 -- Occupied --
-10.2737 -10.2637 -10.2637  -0.8890  -0.7698  -0.6817  -0.5513  -0.5314
 -0.4740  -0.4562  -0.4273  -0.4125  -0.4114

                    Cartesian Multipole Moments
 -----------------------------------------------------------------
    Charge (ESU x 10^10)
                -0.0000
    Dipole Moment (Debye)
         X      -0.0000      Y      -0.0024      Z      -0.0629
       Tot       0.0629
    Quadrupole Moments (Debye-Ang)
        XX     -22.3516     XY      -0.0000     YY     -21.3104
        XZ      -0.0000     YZ       0.0037     ZZ     -21.8449

 Total job time:  24.85s(wall), 67.33s(cpu)
        *  Thank you very much for using Q-Chem.  Have a nice day.  *
