 Q-Chem 5.3 (devel), Q-Chem, Inc., Pleasanton, CA (2020)
 Q-Chem 5.3.0 for Intel X86 EM64T Linux

User input:
--------------------------------------------------------------
$rem
   JOBTYPE  sp
   EXCHANGE   omegaB97X-D
   BASIS   6-311+G(2df,2pd)
   UNRESTRICTED   False
   max_scf_cycles   250
   geom_opt_max_cycles   1500
   basis2 6-31G*
   scf_algorithm rca_diis
   SYM_IGNORE  TRUE
   print_input   true
   geom_opt_dmax   80
   pop_mulliken false
   XC_GRID 000075000302
$end

$molecule
0 1
C       1.2681020030     -0.0156609816     0.2525285926
C       0.0000000337     0.0112536626     -0.5835802748
H       1.3552373922     -0.8995031654     0.8860106116
H       1.2259687449     0.8599498630     0.9051213786
H       2.1761610664     0.0813903303     -0.3431646829
C       -1.2681019447     -0.0156610385     0.2525285868
H       0.0000002239     -0.9034181709     -1.1812921316
H       -0.0000003073     0.8398121243     -1.2950744343
H       -1.3552373387     -0.8995031960     0.8860106157
H       -2.1761609688     0.0813913406     -0.3431645821
H       -1.2259689651     0.8599498976     0.9051213395
$end
--------------------------------------------------------------

             Standard Nuclear Orientation (Angstroms)
    I     Atom           X                Y                Z
 ----------------------------------------------------------------
    1      C       1.2681020030    -0.0156609816     0.2525285926
    2      C       0.0000000337     0.0112536626    -0.5835802748
    3      H       1.3552373922    -0.8995031654     0.8860106116
    4      H       1.2259687449     0.8599498630     0.9051213786
    5      H       2.1761610664     0.0813903303    -0.3431646829
    6      C      -1.2681019447    -0.0156610385     0.2525285868
    7      H       0.0000002239    -0.9034181709    -1.1812921316
    8      H      -0.0000003073     0.8398121243    -1.2950744343
    9      H      -1.3552373387    -0.8995031960     0.8860106157
   10      H      -2.1761609688     0.0813913406    -0.3431645821
   11      H      -1.2259689651     0.8599498976     0.9051213395
 ----------------------------------------------------------------

    7    -119.1000722980      4.57E-06 Convergence criterion met
    6    -119.1431661513      3.98E-06 Convergence criterion met
 Total energy in the final basis set = -119.14316615

                    Orbital Energies (a.u.)
 --------------------------------------------------------------

 Alpha MOs
 -- Occupied --
-10.2732 -10.2652 -10.2652  -0.8831  -0.7779  -0.6773  -0.5475  -0.5267
 -0.4824  -0.4619  -0.4237  -0.4209  -0.3991

                    Cartesian Multipole Moments
 -----------------------------------------------------------------
    Charge (ESU x 10^10)
                -0.0000
    Dipole Moment (Debye)
         X      -0.0000      Y      -0.0008      Z      -0.0847
       Tot       0.0847
    Quadrupole Moments (Debye-Ang)
        XX     -22.0441     XY      -0.0000     YY     -21.3593
        XZ      -0.0000     YZ      -0.3424     ZZ     -21.9769

 Total job time:  27.01s(wall), 73.28s(cpu)
        *  Thank you very much for using Q-Chem.  Have a nice day.  *
