 Q-Chem 5.3 (devel), Q-Chem, Inc., Pleasanton, CA (2020)
 Q-Chem 5.3.0 for Intel X86 EM64T Linux

User input:
--------------------------------------------------------------
$rem
   JOBTYPE  sp
   EXCHANGE   omegaB97X-D
   BASIS   6-311+G(2df,2pd)
   UNRESTRICTED   False
   max_scf_cycles   250
   geom_opt_max_cycles   1500
   basis2 6-31G*
   scf_algorithm rca_diis
   SYM_IGNORE  TRUE
   print_input   true
   geom_opt_dmax   80
   pop_mulliken false
   XC_GRID 000075000302
$end

$molecule
0 1
C       1.2649630564     -0.0703843559     0.2550268180
C       0.0000000210     -0.1429830887     -0.5955697468
H       1.4373088886     -0.8296600925     1.0176927490
H       1.1261356984     0.8778755217     0.7833745168
H       2.1585519058     0.0548935927     -0.3565454628
C       -1.2649628832     -0.0703843828     0.2550270891
H       -0.0000000184     -0.7990642373     -1.4653590803
H       -0.0000002341     0.8765975151     -0.9971235377
H       -1.4373089307     -0.8296598784     1.0176931283
H       -2.1585515185     0.0548940156     -0.3565454306
H       -1.1261360458     0.8778760564     0.7833739759
$end
--------------------------------------------------------------

             Standard Nuclear Orientation (Angstroms)
    I     Atom           X                Y                Z
 ----------------------------------------------------------------
    1      C       1.2649630564    -0.0703843559     0.2550268180
    2      C       0.0000000210    -0.1429830887    -0.5955697468
    3      H       1.4373088886    -0.8296600925     1.0176927490
    4      H       1.1261356984     0.8778755217     0.7833745168
    5      H       2.1585519058     0.0548935927    -0.3565454628
    6      C      -1.2649628832    -0.0703843828     0.2550270891
    7      H      -0.0000000184    -0.7990642373    -1.4653590803
    8      H      -0.0000002341     0.8765975151    -0.9971235377
    9      H      -1.4373089307    -0.8296598784     1.0176931283
   10      H      -2.1585515185     0.0548940156    -0.3565454306
   11      H      -1.1261360458     0.8778760564     0.7833739759
 ----------------------------------------------------------------

    7    -119.0862992100      4.60E-06 Convergence criterion met
    6    -119.1297789086      3.93E-06 Convergence criterion met
 Total energy in the final basis set = -119.12977891

                    Orbital Energies (a.u.)
 --------------------------------------------------------------

 Alpha MOs
 -- Occupied --
-10.2759 -10.2668 -10.2668  -0.8863  -0.7777  -0.6778  -0.5509  -0.5233
 -0.4891  -0.4545  -0.4231  -0.4196  -0.3972

                    Cartesian Multipole Moments
 -----------------------------------------------------------------
    Charge (ESU x 10^10)
                -0.0000
    Dipole Moment (Debye)
         X      -0.0000      Y       0.1918      Z      -0.0902
       Tot       0.2119
    Quadrupole Moments (Debye-Ang)
        XX     -22.1325     XY      -0.0000     YY     -21.6402
        XZ      -0.0000     YZ      -0.1273     ZZ     -21.7194

 Total job time:  27.55s(wall), 74.88s(cpu)
        *  Thank you very much for using Q-Chem.  Have a nice day.  *
