 Q-Chem 5.3 (devel), Q-Chem, Inc., Pleasanton, CA (2020)
 Q-Chem 5.3.0 for Intel X86 EM64T Linux

User input:
--------------------------------------------------------------
$rem
   JOBTYPE  sp
   EXCHANGE   omegaB97X-D
   BASIS   6-311+G(2df,2pd)
   UNRESTRICTED   False
   max_scf_cycles   250
   geom_opt_max_cycles   1500
   basis2 6-31G*
   scf_algorithm rca_diis
   SYM_IGNORE  TRUE
   print_input   true
   geom_opt_dmax   80
   pop_mulliken false
   XC_GRID 000075000302
$end

$molecule
0 1
C       1.2687945758     0.0007166191     0.2737593160
C       0.0000002133     -0.0014684365     -0.5498569705
H       1.3087396565     -0.8881959988     0.9224932794
H       1.3030514725     0.8861753623     0.9263817158
H       2.1404676051     0.0050334055     -0.3250164410
C       -1.2687940263     0.0007167336     0.2737590334
H       0.0000002478     -1.0496161416     -1.3490700188
H       0.0000002464     1.0436259679     -1.3552646475
H       -1.3087394735     -0.8881986088     0.9224950469
H       -2.1404693809     0.0050341613     -0.3250182792
H       -1.3030511972     0.8861776020     0.9263829845
$end
--------------------------------------------------------------

             Standard Nuclear Orientation (Angstroms)
    I     Atom           X                Y                Z
 ----------------------------------------------------------------
    1      C       1.2687945758     0.0007166191     0.2737593160
    2      C       0.0000002133    -0.0014684365    -0.5498569705
    3      H       1.3087396565    -0.8881959988     0.9224932794
    4      H       1.3030514725     0.8861753623     0.9263817158
    5      H       2.1404676051     0.0050334055    -0.3250164410
    6      C      -1.2687940263     0.0007167336     0.2737590334
    7      H       0.0000002478    -1.0496161416    -1.3490700188
    8      H       0.0000002464     1.0436259679    -1.3552646475
    9      H      -1.3087394735    -0.8881986088     0.9224950469
   10      H      -2.1404693809     0.0050341613    -0.3250182792
   11      H      -1.3030511972     0.8861776020     0.9263829845
 ----------------------------------------------------------------

    7    -119.0616875947      5.00E-06 Convergence criterion met
    6    -119.1038429348      4.10E-06 Convergence criterion met
 Total energy in the final basis set = -119.10384293

                    Orbital Energies (a.u.)
 --------------------------------------------------------------

 Alpha MOs
 -- Occupied --
-10.3181 -10.2683 -10.2683  -0.8789  -0.7851  -0.6524  -0.5327  -0.5312
 -0.4870  -0.4656  -0.4321  -0.4064  -0.3810

                    Cartesian Multipole Moments
 -----------------------------------------------------------------
    Charge (ESU x 10^10)
                -0.0000
    Dipole Moment (Debye)
         X       0.0000      Y      -0.0004      Z       0.2713
       Tot       0.2713
    Quadrupole Moments (Debye-Ang)
        XX     -21.8624     XY      -0.0000     YY     -21.7464
        XZ       0.0000     YZ       0.0003     ZZ     -22.6052

 Total job time:  26.80s(wall), 72.87s(cpu)
        *  Thank you very much for using Q-Chem.  Have a nice day.  *
