 Q-Chem 5.2 (devel), Q-Chem, Inc., Pleasanton, CA (2019)
 Q-Chem 5.2.2 for Intel X86 EM64T Linux

User input:
--------------------------------------------------------------
$rem
   JOBTYPE  sp
   EXCHANGE   omegaB97X-D
   BASIS   6-311+G(2df,2pd)
   max_scf_cycles   250
   geom_opt_max_cycles   1500
   basis2 6-31G*
   scf_algorithm rca_diis
   SYM_IGNORE  TRUE
   print_input   true
   geom_opt_dmax   80
   pop_mulliken false
   XC_GRID 000075000302
$end

$molecule
0 1
C       1.2670606765     -0.0214280240     0.2601438712
C       0.0000004802     -0.0201988188     -0.5867018324
H       1.3037563803     -0.8607486447     0.8775995696
H       1.3066218062     0.8991032109     0.9297325031
H       2.1664672316     -0.0168217249     -0.3608309224
C       -1.2670574396     -0.0214285192     0.2601471753
H       0.0000001338     -0.8642748935     -1.2230375088
H       -0.0000002375     0.8842630498     -1.2625006676
H       -1.3037524753     -0.8607421405     0.8775969984
H       -2.1664781209     -0.0168216975     -0.3608360197
H       -1.3066184958     0.8990988685     0.9297318524
--------------------------------------------------------------

             Standard Nuclear Orientation (Angstroms)
    I     Atom           X                Y                Z
 ----------------------------------------------------------------
    1      C       1.2670606765    -0.0214280240     0.2601438712
    2      C       0.0000004802    -0.0201988188    -0.5867018324
    3      H       1.3037563803    -0.8607486447     0.8775995696
    4      H       1.3066218062     0.8991032109     0.9297325031
    5      H       2.1664672316    -0.0168217249    -0.3608309224
    6      C      -1.2670574396    -0.0214285192     0.2601471753
    7      H       0.0000001338    -0.8642748935    -1.2230375088
    8      H      -0.0000002375     0.8842630498    -1.2625006676
    9      H      -1.3037524753    -0.8607421405     0.8775969984
   10      H      -2.1664781209    -0.0168216975    -0.3608360197
   11      H      -1.3066184958     0.8990988685     0.9297318524
 ----------------------------------------------------------------

    7    -119.0957082474      4.55E-06 Convergence criterion met
    6    -119.1389098194      3.86E-06 Convergence criterion met
 Total energy in the final basis set = -119.13890982

                    Orbital Energies (a.u.)
 --------------------------------------------------------------

 Alpha MOs
 -- Occupied --
-10.2741 -10.2650 -10.2650  -0.8818  -0.7779  -0.6788  -0.5461  -0.5241
 -0.4863  -0.4605  -0.4185  -0.4177  -0.4073

                    Cartesian Multipole Moments
 -----------------------------------------------------------------
    Charge (ESU x 10^10)
                -0.0000
    Dipole Moment (Debye)
         X       0.0000      Y      -0.1519      Z      -0.0858
       Tot       0.1745
    Quadrupole Moments (Debye-Ang)
        XX     -22.1722     XY      -0.0000     YY     -21.3579
        XZ      -0.0000     YZ       0.0030     ZZ     -21.8490

 Total job time:  49.31s(wall), 137.54s(cpu)
        *  Thank you very much for using Q-Chem.  Have a nice day.  *
