 Q-Chem 5.3 (devel), Q-Chem, Inc., Pleasanton, CA (2020)
 Q-Chem 5.3.0 for Intel X86 EM64T Linux

User input:
--------------------------------------------------------------
$rem
   JOBTYPE  sp
   EXCHANGE   omegaB97X-D
   BASIS   6-311+G(2df,2pd)
   UNRESTRICTED   False
   max_scf_cycles   250
   geom_opt_max_cycles   1500
   basis2 6-31G*
   scf_algorithm rca_diis
   SYM_IGNORE  TRUE
   print_input   true
   geom_opt_dmax   80
   pop_mulliken false
   XC_GRID 000075000302
$end

$molecule
0 1
C       1.2549034783     -0.0286418525     0.2307951759
C       0.0000004531     -0.0027480891     -0.6775706085
H       1.1903823182     -0.9471038050     0.8085973932
H       1.4580116188     0.9316562450     0.7098327597
H       2.1982542615     0.0382800375     -0.3238744941
C       -1.2549025853     -0.0286454849     0.2307955804
H       0.0000023530     -1.0448806377     -0.9635436668
H       -0.0000025665     1.0592405334     -0.8685398835
H       -1.1903705680     -0.9471088222     0.8085931087
H       -2.1982543720     0.0383006626     -0.3238699490
H       -1.4580244516     0.9316518788     0.7098296031
$end
--------------------------------------------------------------

             Standard Nuclear Orientation (Angstroms)
    I     Atom           X                Y                Z
 ----------------------------------------------------------------
    1      C       1.2549034783    -0.0286418525     0.2307951759
    2      C       0.0000004531    -0.0027480891    -0.6775706085
    3      H       1.1903823182    -0.9471038050     0.8085973932
    4      H       1.4580116188     0.9316562450     0.7098327597
    5      H       2.1982542615     0.0382800375    -0.3238744941
    6      C      -1.2549025853    -0.0286454849     0.2307955804
    7      H       0.0000023530    -1.0448806377    -0.9635436668
    8      H      -0.0000025665     1.0592405334    -0.8685398835
    9      H      -1.1903705680    -0.9471088222     0.8085931087
   10      H      -2.1982543720     0.0383006626    -0.3238699490
   11      H      -1.4580244516     0.9316518788     0.7098296031
 ----------------------------------------------------------------

    7    -119.0245269186      4.53E-06 Convergence criterion met
    5    -119.0710078470      8.60E-06 Convergence criterion met
 Total energy in the final basis set = -119.07100785

                    Orbital Energies (a.u.)
 --------------------------------------------------------------

 Alpha MOs
 -- Occupied --
-10.2790 -10.2655 -10.2655  -0.8904  -0.7790  -0.6705  -0.5995  -0.5081
 -0.4943  -0.4553  -0.4303  -0.4066  -0.3613

                    Cartesian Multipole Moments
 -----------------------------------------------------------------
    Charge (ESU x 10^10)
                -0.0000
    Dipole Moment (Debye)
         X      -0.0000      Y       0.1350      Z       0.0551
       Tot       0.1458
    Quadrupole Moments (Debye-Ang)
        XX     -22.1463     XY      -0.0001     YY     -19.9919
        XZ      -0.0000     YZ      -0.2179     ZZ     -24.2975

 Total job time:  25.02s(wall), 67.44s(cpu)
        *  Thank you very much for using Q-Chem.  Have a nice day.  *
