 Q-Chem 5.3 (devel), Q-Chem, Inc., Pleasanton, CA (2020)
 Q-Chem 5.3.0 for Intel X86 EM64T Linux

User input:
--------------------------------------------------------------
$rem
   JOBTYPE  sp
   EXCHANGE   omegaB97X-D
   BASIS   6-311+G(2df,2pd)
   UNRESTRICTED   False
   max_scf_cycles   250
   geom_opt_max_cycles   1500
   basis2 6-31G*
   scf_algorithm rca_diis
   SYM_IGNORE  TRUE
   print_input   true
   geom_opt_dmax   80
   pop_mulliken false
   XC_GRID 000075000302
$end

$molecule
0 1
C       1.2716374901     0.0442201114     0.2191214987
C       0.0000000187     0.0405682763     -0.6472115655
H       1.3951918969     -0.8012832515     0.9067128373
H       1.1763002520     0.8355052399     0.9631417814
H       2.1251823435     -0.1323809961     -0.4326476601
C       -1.2716377170     0.0442208132     0.2191213346
H       -0.0000006516     -0.9257931316     -1.1474654094
H       0.0000002066     0.9931032276     -1.1769343188
H       -1.3951932905     -0.8012822947     0.9067129129
H       -2.1251820581     -0.1323835508     -0.4326474201
H       -1.1762985511     0.8355062224     0.9631410278
$end
--------------------------------------------------------------

             Standard Nuclear Orientation (Angstroms)
    I     Atom           X                Y                Z
 ----------------------------------------------------------------
    1      C       1.2716374901     0.0442201114     0.2191214987
    2      C       0.0000000187     0.0405682763    -0.6472115655
    3      H       1.3951918969    -0.8012832515     0.9067128373
    4      H       1.1763002520     0.8355052399     0.9631417814
    5      H       2.1251823435    -0.1323809961    -0.4326476601
    6      C      -1.2716377170     0.0442208132     0.2191213346
    7      H      -0.0000006516    -0.9257931316    -1.1474654094
    8      H       0.0000002066     0.9931032276    -1.1769343188
    9      H      -1.3951932905    -0.8012822947     0.9067129129
   10      H      -2.1251820581    -0.1323835508    -0.4326474201
   11      H      -1.1762985511     0.8355062224     0.9631410278
 ----------------------------------------------------------------

    7    -119.0710929339      6.40E-06 Convergence criterion met
    5    -119.1154570516      9.55E-06 Convergence criterion met
 Total energy in the final basis set = -119.11545705

                    Orbital Energies (a.u.)
 --------------------------------------------------------------

 Alpha MOs
 -- Occupied --
-10.2771 -10.2650 -10.2650  -0.8819  -0.7773  -0.6774  -0.5625  -0.5175
 -0.5031  -0.4576  -0.4125  -0.4054  -0.3940

                    Cartesian Multipole Moments
 -----------------------------------------------------------------
    Charge (ESU x 10^10)
                -0.0000
    Dipole Moment (Debye)
         X       0.0000      Y      -0.2245      Z       0.0476
       Tot       0.2295
    Quadrupole Moments (Debye-Ang)
        XX     -22.7033     XY       0.0000     YY     -21.5600
        XZ       0.0000     YZ       0.3258     ZZ     -21.7182

 Total job time:  24.76s(wall), 67.12s(cpu)
        *  Thank you very much for using Q-Chem.  Have a nice day.  *
