 Q-Chem 5.3 (devel), Q-Chem, Inc., Pleasanton, CA (2020)
 Q-Chem 5.3.0 for Intel X86 EM64T Linux

User input:
--------------------------------------------------------------
$rem
   JOBTYPE  sp
   EXCHANGE   omegaB97X-D
   BASIS   6-311+G(2df,2pd)
   UNRESTRICTED   False
   max_scf_cycles   250
   geom_opt_max_cycles   1500
   basis2 6-31G*
   scf_algorithm rca_diis
   SYM_IGNORE  TRUE
   print_input   true
   geom_opt_dmax   80
   pop_mulliken false
   XC_GRID 000075000302
$end

$molecule
0 1
C       1.2670667480     -0.0472872608     0.2567473697
C       0.0000000152     -0.0941006250     -0.5913096946
H       1.3968834309     -0.8512911178     0.9820227452
H       1.1916029276     0.8846464685     0.8238533701
H       2.1636500955     0.0332334830     -0.3582103262
C       -1.2670666317     -0.0472872882     0.2567475489
H       -0.0000000047     -0.8298769980     -1.3962116673
H       -0.0000001803     0.8853741629     -1.0802600448
H       -1.3968834673     -0.8512909889     0.9820230049
H       -2.1636498310     0.0332340084     -0.3582103030
H       -1.1916031628     0.8846468219     0.8238530161
$end
--------------------------------------------------------------

             Standard Nuclear Orientation (Angstroms)
    I     Atom           X                Y                Z
 ----------------------------------------------------------------
    1      C       1.2670667480    -0.0472872608     0.2567473697
    2      C       0.0000000152    -0.0941006250    -0.5913096946
    3      H       1.3968834309    -0.8512911178     0.9820227452
    4      H       1.1916029276     0.8846464685     0.8238533701
    5      H       2.1636500955     0.0332334830    -0.3582103262
    6      C      -1.2670666317    -0.0472872882     0.2567475489
    7      H      -0.0000000047    -0.8298769980    -1.3962116673
    8      H      -0.0000001803     0.8853741629    -1.0802600448
    9      H      -1.3968834673    -0.8512909889     0.9820230049
   10      H      -2.1636498310     0.0332340084    -0.3582103030
   11      H      -1.1916031628     0.8846468219     0.8238530161
 ----------------------------------------------------------------

    7    -119.0958890961      4.52E-06 Convergence criterion met
    6    -119.1390210115      3.91E-06 Convergence criterion met
 Total energy in the final basis set = -119.13902101

                    Orbital Energies (a.u.)
 --------------------------------------------------------------

 Alpha MOs
 -- Occupied --
-10.2750 -10.2660 -10.2660  -0.8833  -0.7774  -0.6778  -0.5479  -0.5238
 -0.4861  -0.4589  -0.4204  -0.4194  -0.4025

                    Cartesian Multipole Moments
 -----------------------------------------------------------------
    Charge (ESU x 10^10)
                -0.0000
    Dipole Moment (Debye)
         X      -0.0000      Y       0.1226      Z      -0.0854
       Tot       0.1495
    Quadrupole Moments (Debye-Ang)
        XX     -22.1427     XY      -0.0000     YY     -21.4986
        XZ      -0.0000     YZ      -0.0775     ZZ     -21.7817

 Total job time:  27.23s(wall), 74.10s(cpu)
        *  Thank you very much for using Q-Chem.  Have a nice day.  *
