 Q-Chem 5.3 (devel), Q-Chem, Inc., Pleasanton, CA (2020)
 Q-Chem 5.3.0 for Intel X86 EM64T Linux

User input:
--------------------------------------------------------------
$rem
   JOBTYPE  sp
   EXCHANGE   omegaB97X-D
   BASIS   6-311+G(2df,2pd)
   UNRESTRICTED   False
   max_scf_cycles   250
   geom_opt_max_cycles   1500
   basis2 6-31G*
   scf_algorithm rca_diis
   SYM_IGNORE  TRUE
   print_input   true
   geom_opt_dmax   80
   pop_mulliken false
   XC_GRID 000075000302
$end

$molecule
0 1
C       1.2649957179     0.0267434082     0.2726941969
C       -0.0000002495     0.0126432408     -0.5496241054
H       1.3585014279     -0.8271719155     0.9513944571
H       1.2112660598     0.8297010670     1.0103332302
H       2.1379899450     -0.0204397442     -0.3731042023
C       -1.2649962907     0.0267462803     0.2726936944
H       -0.0000011440     -0.6924137857     -1.3936321143
H       0.0000013407     0.6621090417     -1.4383356365
H       -1.3585091913     -0.8271671178     0.9513960050
H       -2.1379890556     -0.0204509728     -0.3731053991
H       -1.2112586208     0.8297011640     1.0103348927
$end
--------------------------------------------------------------

             Standard Nuclear Orientation (Angstroms)
    I     Atom           X                Y                Z
 ----------------------------------------------------------------
    1      C       1.2649957179     0.0267434082     0.2726941969
    2      C      -0.0000002495     0.0126432408    -0.5496241054
    3      H       1.3585014279    -0.8271719155     0.9513944571
    4      H       1.2112660598     0.8297010670     1.0103332302
    5      H       2.1379899450    -0.0204397442    -0.3731042023
    6      C      -1.2649962907     0.0267462803     0.2726936944
    7      H      -0.0000011440    -0.6924137857    -1.3936321143
    8      H       0.0000013407     0.6621090417    -1.4383356365
    9      H      -1.3585091913    -0.8271671178     0.9513960050
   10      H      -2.1379890556    -0.0204509728    -0.3731053991
   11      H      -1.2112586208     0.8297011640     1.0103348927
 ----------------------------------------------------------------

    7    -119.0673805894      6.82E-06 Convergence criterion met
    6    -119.1126203282      4.18E-06 Convergence criterion met
 Total energy in the final basis set = -119.11262033

                    Orbital Energies (a.u.)
 --------------------------------------------------------------

 Alpha MOs
 -- Occupied --
-10.2739 -10.2676 -10.2675  -0.8850  -0.7799  -0.6992  -0.5443  -0.5107
 -0.5010  -0.4568  -0.4517  -0.4167  -0.3610

                    Cartesian Multipole Moments
 -----------------------------------------------------------------
    Charge (ESU x 10^10)
                 0.0000
    Dipole Moment (Debye)
         X       0.0000      Y      -0.1193      Z      -0.1853
       Tot       0.2204
    Quadrupole Moments (Debye-Ang)
        XX     -22.0844     XY       0.0000     YY     -22.8957
        XZ      -0.0000     YZ       0.1700     ZZ     -20.2750

 Total job time:  28.09s(wall), 75.95s(cpu)
        *  Thank you very much for using Q-Chem.  Have a nice day.  *
