 Q-Chem 5.3 (devel), Q-Chem, Inc., Pleasanton, CA (2020)
 Q-Chem 5.3.0 for Intel X86 EM64T Linux

User input:
--------------------------------------------------------------
$rem
   JOBTYPE  sp
   EXCHANGE   omegaB97X-D
   BASIS   6-311+G(2df,2pd)
   UNRESTRICTED   False
   max_scf_cycles   250
   geom_opt_max_cycles   1500
   basis2 6-31G*
   scf_algorithm rca_diis
   SYM_IGNORE  TRUE
   print_input   true
   geom_opt_dmax   80
   pop_mulliken false
   XC_GRID 000075000302
$end

$molecule
0 1
C       1.2628198011     -0.0260339925     0.2840755610
C       -0.0000000123     -0.0252053565     -0.5515798053
H       1.2430383771     -0.9241355102     0.8989406331
H       1.3905688867     0.8968484973     0.8553938865
H       2.1803781323     0.0845705780     -0.2973385599
C       -1.2628197468     -0.0260344658     0.2840755257
H       0.0000004109     -0.8227043067     -1.3027163713
H       -0.0000001772     0.7854102197     -1.2868022952
H       -1.2430376124     -0.9241360147     0.8989403860
H       -2.1803779800     0.0845734136     -0.2973382646
H       -1.3905701399     0.8968476036     0.8553943227
$end
--------------------------------------------------------------

             Standard Nuclear Orientation (Angstroms)
    I     Atom           X                Y                Z
 ----------------------------------------------------------------
    1      C       1.2628198011    -0.0260339925     0.2840755610
    2      C      -0.0000000123    -0.0252053565    -0.5515798053
    3      H       1.2430383771    -0.9241355102     0.8989406331
    4      H       1.3905688867     0.8968484973     0.8553938865
    5      H       2.1803781323     0.0845705780    -0.2973385599
    6      C      -1.2628197468    -0.0260344658     0.2840755257
    7      H       0.0000004109    -0.8227043067    -1.3027163713
    8      H      -0.0000001772     0.7854102197    -1.2868022952
    9      H      -1.2430376124    -0.9241360147     0.8989403860
   10      H      -2.1803779800     0.0845734136    -0.2973382646
   11      H      -1.3905701399     0.8968476036     0.8553943227
 ----------------------------------------------------------------

    7    -119.0882229976      5.55E-06 Convergence criterion met
    6    -119.1320587453      3.78E-06 Convergence criterion met
 Total energy in the final basis set = -119.13205875

                    Orbital Energies (a.u.)
 --------------------------------------------------------------

 Alpha MOs
 -- Occupied --
-10.2728 -10.2658 -10.2658  -0.8831  -0.7798  -0.6825  -0.5545  -0.5202
 -0.4830  -0.4689  -0.4172  -0.4157  -0.3955

                    Cartesian Multipole Moments
 -----------------------------------------------------------------
    Charge (ESU x 10^10)
                -0.0000
    Dipole Moment (Debye)
         X      -0.0000      Y       0.1359      Z      -0.1673
       Tot       0.2155
    Quadrupole Moments (Debye-Ang)
        XX     -21.8285     XY      -0.0000     YY     -21.3470
        XZ      -0.0000     YZ      -0.2508     ZZ     -22.0233

 Total job time:  27.32s(wall), 74.02s(cpu)
        *  Thank you very much for using Q-Chem.  Have a nice day.  *
