 Q-Chem 5.3 (devel), Q-Chem, Inc., Pleasanton, CA (2020)
 Q-Chem 5.3.0 for Intel X86 EM64T Linux

User input:
--------------------------------------------------------------
$rem
   JOBTYPE  sp
   EXCHANGE   omegaB97X-D
   BASIS   6-311+G(2df,2pd)
   UNRESTRICTED   False
   max_scf_cycles   250
   geom_opt_max_cycles   1500
   basis2 6-31G*
   scf_algorithm rca_diis
   SYM_IGNORE  TRUE
   print_input   true
   geom_opt_dmax   80
   pop_mulliken false
   XC_GRID 000075000302
$end

$molecule
0 1
C       1.0174214627     0.0080301962     0.2635854494
C       0.0000000839     -0.0199128437     -0.8395971484
H       0.8337158814     -0.8835339404     0.8686188016
H       0.7570578896     0.8627513453     0.8926921716
H       2.0806224214     0.0536009992     0.0387563107
C       -1.0174210659     0.0080304940     0.2635856856
H       -0.0000007210     -0.9178709496     -1.4576156794
H       0.0000002948     0.8560861044     -1.4890479338
H       -0.8337155266     -0.8835337087     0.8686189174
H       -2.0806220982     0.0536009486     0.0387559701
H       -0.7570586826     0.8627520208     0.8926924742
$end
--------------------------------------------------------------

             Standard Nuclear Orientation (Angstroms)
    I     Atom           X                Y                Z
 ----------------------------------------------------------------
    1      C       1.0174214627     0.0080301962     0.2635854494
    2      C       0.0000000839    -0.0199128437    -0.8395971484
    3      H       0.8337158814    -0.8835339404     0.8686188016
    4      H       0.7570578896     0.8627513453     0.8926921716
    5      H       2.0806224214     0.0536009992     0.0387563107
    6      C      -1.0174210659     0.0080304940     0.2635856856
    7      H      -0.0000007210    -0.9178709496    -1.4576156794
    8      H       0.0000002948     0.8560861044    -1.4890479338
    9      H      -0.8337155266    -0.8835337087     0.8686189174
   10      H      -2.0806220982     0.0536009486     0.0387559701
   11      H      -0.7570586826     0.8627520208     0.8926924742
 ----------------------------------------------------------------

    7    -119.0381808371      5.05E-06 Convergence criterion met
    5    -119.0842135476      6.79E-06 Convergence criterion met
 Total energy in the final basis set = -119.08421355

                    Orbital Energies (a.u.)
 --------------------------------------------------------------

 Alpha MOs
 -- Occupied --
-10.2737 -10.2616 -10.2616  -0.9233  -0.7438  -0.6999  -0.5769  -0.5471
 -0.4595  -0.4430  -0.4329  -0.4242  -0.3796

                    Cartesian Multipole Moments
 -----------------------------------------------------------------
    Charge (ESU x 10^10)
                -0.0000
    Dipole Moment (Debye)
         X      -0.0000      Y      -0.0134      Z       0.0289
       Tot       0.0319
    Quadrupole Moments (Debye-Ang)
        XX     -23.5151     XY       0.0000     YY     -21.0091
        XZ       0.0000     YZ       0.0376     ZZ     -21.4535

 Total job time:  24.10s(wall), 66.74s(cpu)
        *  Thank you very much for using Q-Chem.  Have a nice day.  *
