 Q-Chem 5.3 (devel), Q-Chem, Inc., Pleasanton, CA (2020)
 Q-Chem 5.3.0 for Intel X86 EM64T Linux

User input:
--------------------------------------------------------------
$rem
   JOBTYPE  sp
   EXCHANGE   omegaB97X-D
   BASIS   6-311+G(2df,2pd)
   UNRESTRICTED   False
   max_scf_cycles   250
   geom_opt_max_cycles   1500
   basis2 6-31G*
   scf_algorithm rca_diis
   SYM_IGNORE  TRUE
   print_input   true
   geom_opt_dmax   80
   pop_mulliken false
   XC_GRID 000075000302
$end

$molecule
0 1
C       1.2825021086     0.0421842668     0.2426946520
C       0.0169254729     0.0031598640     -0.5905526548
H       1.4493325098     -0.7986252971     0.9301118401
H       1.1689526780     0.8220097074     0.9929369062
H       2.1363266739     -0.1731566089     -0.3958238831
C       -1.2505654715     -0.0325099653     0.2698331368
H       0.0237753851     -0.8723428971     -1.2441619005
H       -0.0514610768     0.8736956415     -1.2472473113
H       -1.1580389096     -0.9341629379     0.8661318213
H       -2.1714012996     0.1649928093     -0.2853423287
H       -1.4463481313     0.9047560833     0.8024647407
$end
--------------------------------------------------------------

             Standard Nuclear Orientation (Angstroms)
    I     Atom           X                Y                Z
 ----------------------------------------------------------------
    1      C       1.2825021086     0.0421842668     0.2426946520
    2      C       0.0169254729     0.0031598640    -0.5905526548
    3      H       1.4493325098    -0.7986252971     0.9301118401
    4      H       1.1689526780     0.8220097074     0.9929369062
    5      H       2.1363266739    -0.1731566089    -0.3958238831
    6      C      -1.2505654715    -0.0325099653     0.2698331368
    7      H       0.0237753851    -0.8723428971    -1.2441619005
    8      H      -0.0514610768     0.8736956415    -1.2472473113
    9      H      -1.1580389096    -0.9341629379     0.8661318213
   10      H      -2.1714012996     0.1649928093    -0.2853423287
   11      H      -1.4463481313     0.9047560833     0.8024647407
 ----------------------------------------------------------------

    7    -119.0703164863      6.22E-06 Convergence criterion met
    6    -119.1150280241      4.06E-06 Convergence criterion met
 Total energy in the final basis set = -119.11502802

                    Orbital Energies (a.u.)
 --------------------------------------------------------------

 Alpha MOs
 -- Occupied --
-10.2745 -10.2659 -10.2657  -0.8830  -0.7810  -0.6811  -0.5541  -0.5409
 -0.4823  -0.4486  -0.4329  -0.4091  -0.3833

                    Cartesian Multipole Moments
 -----------------------------------------------------------------
    Charge (ESU x 10^10)
                 0.0000
    Dipole Moment (Debye)
         X      -0.0648      Y      -0.0200      Z      -0.0555
       Tot       0.0876
    Quadrupole Moments (Debye-Ang)
        XX     -22.1243     XY      -1.4716     YY     -21.4598
        XZ       0.0597     YZ      -0.0060     ZZ     -21.9745

 Total job time:  27.90s(wall), 75.53s(cpu)
        *  Thank you very much for using Q-Chem.  Have a nice day.  *
