 Q-Chem 5.3 (devel), Q-Chem, Inc., Pleasanton, CA (2020)
 Q-Chem 5.3.0 for Intel X86 EM64T Linux

User input:
--------------------------------------------------------------
$rem
   JOBTYPE  sp
   EXCHANGE   omegaB97X-D
   BASIS   6-311+G(2df,2pd)
   UNRESTRICTED   False
   max_scf_cycles   250
   geom_opt_max_cycles   1500
   basis2 6-31G*
   scf_algorithm rca_diis
   SYM_IGNORE  TRUE
   print_input   true
   geom_opt_dmax   80
   pop_mulliken false
   XC_GRID 000075000302
$end

$molecule
0 1
C       1.2610777423     -0.0928799795     0.2530781038
C       0.0000000253     -0.1931282669     -0.6016832401
H       1.4730606723     -0.8034467020     1.0509403725
H       1.0543630912     0.8645885282     0.7429375250
H       2.1494317218     0.0808902902     -0.3540012841
C       -1.2610775126     -0.0928800028     0.2530784684
H       -0.0000000386     -0.7634027638     -1.5287792458
H       -0.0000002834     0.8582261071     -0.9144020917
H       -1.4730607107     -0.8034463914     1.0509408641
H       -2.1494312215     0.0808905950     -0.3540012461
H       -1.0543635466     0.8645892518     0.7429367929
$end
--------------------------------------------------------------

             Standard Nuclear Orientation (Angstroms)
    I     Atom           X                Y                Z
 ----------------------------------------------------------------
    1      C       1.2610777423    -0.0928799795     0.2530781038
    2      C       0.0000000253    -0.1931282669    -0.6016832401
    3      H       1.4730606723    -0.8034467020     1.0509403725
    4      H       1.0543630912     0.8645885282     0.7429375250
    5      H       2.1494317218     0.0808902902    -0.3540012841
    6      C      -1.2610775126    -0.0928800028     0.2530784684
    7      H      -0.0000000386    -0.7634027638    -1.5287792458
    8      H      -0.0000002834     0.8582261071    -0.9144020917
    9      H      -1.4730607107    -0.8034463914     1.0509408641
   10      H      -2.1494312215     0.0808905950    -0.3540012461
   11      H      -1.0543635466     0.8645892518     0.7429367929
 ----------------------------------------------------------------

    7    -119.0719086273      4.81E-06 Convergence criterion met
    6    -119.1159884627      3.95E-06 Convergence criterion met
 Total energy in the final basis set = -119.11598846

                    Orbital Energies (a.u.)
 --------------------------------------------------------------

 Alpha MOs
 -- Occupied --
-10.2773 -10.2680 -10.2680  -0.8910  -0.7781  -0.6777  -0.5552  -0.5230
 -0.4924  -0.4493  -0.4264  -0.4197  -0.3902

                    Cartesian Multipole Moments
 -----------------------------------------------------------------
    Charge (ESU x 10^10)
                -0.0000
    Dipole Moment (Debye)
         X      -0.0000      Y       0.2701      Z      -0.0992
       Tot       0.2877
    Quadrupole Moments (Debye-Ang)
        XX     -22.1309     XY      -0.0000     YY     -21.8268
        XZ      -0.0000     YZ      -0.1911     ZZ     -21.6393

 Total job time:  26.61s(wall), 73.12s(cpu)
        *  Thank you very much for using Q-Chem.  Have a nice day.  *
