 Q-Chem 5.3 (devel), Q-Chem, Inc., Pleasanton, CA (2020)
 Q-Chem 5.3.0 for Intel X86 EM64T Linux

User input:
--------------------------------------------------------------
$rem
   JOBTYPE  sp
   EXCHANGE   omegaB97X-D
   BASIS   6-311+G(2df,2pd)
   UNRESTRICTED   False
   max_scf_cycles   250
   geom_opt_max_cycles   1500
   basis2 6-31G*
   scf_algorithm rca_diis
   SYM_IGNORE  TRUE
   print_input   true
   geom_opt_dmax   80
   pop_mulliken false
   XC_GRID 000075000302
$end

$molecule
0 1
C       1.2613635711     -0.0583307803     0.1988297341
C       0.0000000979     0.0570564432     -0.6040809113
H       1.5163734488     -0.9350755237     0.7887035892
H       0.8446778943     0.6975642888     0.8756226561
H       2.1517724305     0.4518860474     -0.1680014754
C       -1.2613635499     -0.0583310026     0.1988294787
H       0.0000011228     -0.9923241643     -0.9093574686
H       -0.0000011606     0.6231782965     -1.5358260418
H       -1.5163733350     -0.9350758058     0.7887032520
H       -2.1517715738     0.4518882163     -0.1680004920
H       -0.8446790067     0.6975646503     0.8756226979
$end
--------------------------------------------------------------

             Standard Nuclear Orientation (Angstroms)
    I     Atom           X                Y                Z
 ----------------------------------------------------------------
    1      C       1.2613635711    -0.0583307803     0.1988297341
    2      C       0.0000000979     0.0570564432    -0.6040809113
    3      H       1.5163734488    -0.9350755237     0.7887035892
    4      H       0.8446778943     0.6975642888     0.8756226561
    5      H       2.1517724305     0.4518860474    -0.1680014754
    6      C      -1.2613635499    -0.0583310026     0.1988294787
    7      H       0.0000011228    -0.9923241643    -0.9093574686
    8      H      -0.0000011606     0.6231782965    -1.5358260418
    9      H      -1.5163733350    -0.9350758058     0.7887032520
   10      H      -2.1517715738     0.4518882163    -0.1680004920
   11      H      -0.8446790067     0.6975646503     0.8756226979
 ----------------------------------------------------------------

    7    -119.0198356533      6.55E-06 Convergence criterion met
    6    -119.0666120308      4.99E-06 Convergence criterion met
 Total energy in the final basis set = -119.06661203

                    Orbital Energies (a.u.)
 --------------------------------------------------------------

 Alpha MOs
 -- Occupied --
-10.2750 -10.2667 -10.2667  -0.9064  -0.7822  -0.6807  -0.5627  -0.5495
 -0.4972  -0.4460  -0.4356  -0.4250  -0.3428

                    Cartesian Multipole Moments
 -----------------------------------------------------------------
    Charge (ESU x 10^10)
                -0.0000
    Dipole Moment (Debye)
         X       0.0000      Y      -0.0407      Z      -0.1043
       Tot       0.1120
    Quadrupole Moments (Debye-Ang)
        XX     -21.7482     XY      -0.0000     YY     -21.3866
        XZ      -0.0000     YZ      -1.4606     ZZ     -22.7474

 Total job time:  27.96s(wall), 75.53s(cpu)
        *  Thank you very much for using Q-Chem.  Have a nice day.  *
