 Q-Chem 5.3 (devel), Q-Chem, Inc., Pleasanton, CA (2020)
 Q-Chem 5.3.0 for Intel X86 EM64T Linux

User input:
--------------------------------------------------------------
$rem
   JOBTYPE  sp
   EXCHANGE   omegaB97X-D
   BASIS   6-311+G(2df,2pd)
   UNRESTRICTED   False
   max_scf_cycles   250
   geom_opt_max_cycles   1500
   basis2 6-31G*
   scf_algorithm rca_diis
   SYM_IGNORE  TRUE
   print_input   true
   geom_opt_dmax   80
   pop_mulliken false
   XC_GRID 000075000302
$end

$molecule
0 1
C       1.3216897498     -0.0033137595     0.2722681907
C       0.0050668293     0.0014296711     -0.5849265838
H       1.2377555654     -0.9196024591     0.8555605029
H       1.2199781984     0.8906223812     0.8862833176
H       2.1451015100     0.0086586428     -0.4380249810
C       -1.2114780622     0.0027409059     0.2526778039
H       0.0901136929     -0.8710020416     -1.2371432871
H       0.0985535998     0.8755420561     -1.2337288978
H       -1.3559561526     -0.8344339845     0.9424364536
H       -2.1667151045     -0.0152901854     -0.2791047507
H       -1.3841098868     0.8646494391     0.9047472506
$end
--------------------------------------------------------------

             Standard Nuclear Orientation (Angstroms)
    I     Atom           X                Y                Z
 ----------------------------------------------------------------
    1      C       1.3216897498    -0.0033137595     0.2722681907
    2      C       0.0050668293     0.0014296711    -0.5849265838
    3      H       1.2377555654    -0.9196024591     0.8555605029
    4      H       1.2199781984     0.8906223812     0.8862833176
    5      H       2.1451015100     0.0086586428    -0.4380249810
    6      C      -1.2114780622     0.0027409059     0.2526778039
    7      H       0.0901136929    -0.8710020416    -1.2371432871
    8      H       0.0985535998     0.8755420561    -1.2337288978
    9      H      -1.3559561526    -0.8344339845     0.9424364536
   10      H      -2.1667151045    -0.0152901854    -0.2791047507
   11      H      -1.3841098868     0.8646494391     0.9047472506
 ----------------------------------------------------------------

    7    -119.0893350815      5.10E-06 Convergence criterion met
    6    -119.1330221225      4.71E-06 Convergence criterion met
 Total energy in the final basis set = -119.13302212

                    Orbital Energies (a.u.)
 --------------------------------------------------------------

 Alpha MOs
 -- Occupied --
-10.2744 -10.2665 -10.2646  -0.8835  -0.7791  -0.6782  -0.5476  -0.5321
 -0.4768  -0.4634  -0.4412  -0.4064  -0.3919

                    Cartesian Multipole Moments
 -----------------------------------------------------------------
    Charge (ESU x 10^10)
                 0.0000
    Dipole Moment (Debye)
         X      -0.1345      Y       0.0011      Z      -0.1089
       Tot       0.1731
    Quadrupole Moments (Debye-Ang)
        XX     -22.2095     XY      -0.0212     YY     -21.3918
        XZ      -0.9941     YZ      -0.0000     ZZ     -21.9449

 Total job time:  28.00s(wall), 75.89s(cpu)
        *  Thank you very much for using Q-Chem.  Have a nice day.  *
