 Q-Chem 5.3 (devel), Q-Chem, Inc., Pleasanton, CA (2020)
 Q-Chem 5.3.0 for Intel X86 EM64T Linux

User input:
--------------------------------------------------------------
$rem
   JOBTYPE  sp
   EXCHANGE   omegaB97X-D
   BASIS   6-311+G(2df,2pd)
   UNRESTRICTED   False
   max_scf_cycles   250
   geom_opt_max_cycles   1500
   basis2 6-31G*
   scf_algorithm rca_diis
   SYM_IGNORE  TRUE
   print_input   true
   geom_opt_dmax   80
   pop_mulliken false
   XC_GRID 000075000302
$end

$molecule
0 1
C       1.2521746714     -0.0001257401     0.2494727282
C       -0.0125456743     -0.0000136982     -0.5872744443
H       1.3004281646     -0.9533440502     0.9493531114
H       1.2998799289     0.9523583976     0.9504548283
H       2.2131449690     0.0005389845     -0.4132707907
C       -1.2821697798     0.0001457778     0.2694343806
H       -0.0161618314     -0.8739054744     -1.2430638756
H       -0.0159699552     0.8738427046     -1.2431123290
H       -1.3111357190     -0.8077032944     0.8584126781
H       -2.1160437884     -0.0004563259     -0.3067645090
H       -1.3116010465     0.8086633846     0.8574032408
$end
--------------------------------------------------------------

             Standard Nuclear Orientation (Angstroms)
    I     Atom           X                Y                Z
 ----------------------------------------------------------------
    1      C       1.2521746714    -0.0001257401     0.2494727282
    2      C      -0.0125456743    -0.0000136982    -0.5872744443
    3      H       1.3004281646    -0.9533440502     0.9493531114
    4      H       1.2998799289     0.9523583976     0.9504548283
    5      H       2.2131449690     0.0005389845    -0.4132707907
    6      C      -1.2821697798     0.0001457778     0.2694343806
    7      H      -0.0161618314    -0.8739054744    -1.2430638756
    8      H      -0.0159699552     0.8738427046    -1.2431123290
    9      H      -1.3111357190    -0.8077032944     0.8584126781
   10      H      -2.1160437884    -0.0004563259    -0.3067645090
   11      H      -1.3116010465     0.8086633846     0.8574032408
 ----------------------------------------------------------------

    7    -119.0738901035      5.07E-06 Convergence criterion met
    6    -119.1178909387      4.23E-06 Convergence criterion met
 Total energy in the final basis set = -119.11789094

                    Orbital Energies (a.u.)
 --------------------------------------------------------------

 Alpha MOs
 -- Occupied --
-10.2916 -10.2746 -10.2365  -0.8839  -0.7810  -0.6752  -0.5484  -0.5269
 -0.4824  -0.4656  -0.4254  -0.4103  -0.4051

                    Cartesian Multipole Moments
 -----------------------------------------------------------------
    Charge (ESU x 10^10)
                 0.0000
    Dipole Moment (Debye)
         X      -0.1954      Y       0.0000      Z      -0.0995
       Tot       0.2193
    Quadrupole Moments (Debye-Ang)
        XX     -22.1570     XY       0.0001     YY     -21.3568
        XZ      -0.1963     YZ      -0.0000     ZZ     -21.8236

 Total job time:  27.75s(wall), 74.80s(cpu)
        *  Thank you very much for using Q-Chem.  Have a nice day.  *
