 Q-Chem 5.3 (devel), Q-Chem, Inc., Pleasanton, CA (2020)
 Q-Chem 5.3.0 for Intel X86 EM64T Linux

User input:
--------------------------------------------------------------
$rem
   JOBTYPE  sp
   EXCHANGE   omegaB97X-D
   BASIS   6-311+G(2df,2pd)
   UNRESTRICTED   False
   max_scf_cycles   250
   geom_opt_max_cycles   1500
   basis2 6-31G*
   scf_algorithm rca_diis
   SYM_IGNORE  TRUE
   print_input   true
   geom_opt_dmax   80
   pop_mulliken false
   XC_GRID 000075000302
$end

$molecule
0 1
C       1.2671789692     -0.0008258525     0.2594146026
C       -0.0000000180     0.0103522616     -0.5872124770
H       1.3112080411     -0.8665359866     0.8800296104
H       1.2988022358     0.8940347156     0.9278154425
H       2.1648772456     0.0154592542     -0.3601054800
C       -1.2671790330     -0.0008257131     0.2594145939
H       -0.0000000468     -0.9215911682     -1.2805105285
H       -0.0000000459     0.8269748848     -1.2055403275
H       -1.3112081762     -0.8665361893     0.8800298209
H       -2.1648770128     0.0154600950     -0.3601053010
H       -1.2988022196     0.8940343645     0.9278150625
$end
--------------------------------------------------------------

             Standard Nuclear Orientation (Angstroms)
    I     Atom           X                Y                Z
 ----------------------------------------------------------------
    1      C       1.2671789692    -0.0008258525     0.2594146026
    2      C      -0.0000000180     0.0103522616    -0.5872124770
    3      H       1.3112080411    -0.8665359866     0.8800296104
    4      H       1.2988022358     0.8940347156     0.9278154425
    5      H       2.1648772456     0.0154592542    -0.3601054800
    6      C      -1.2671790330    -0.0008257131     0.2594145939
    7      H      -0.0000000468    -0.9215911682    -1.2805105285
    8      H      -0.0000000459     0.8269748848    -1.2055403275
    9      H      -1.3112081762    -0.8665361893     0.8800298209
   10      H      -2.1648770128     0.0154600950    -0.3601053010
   11      H      -1.2988022196     0.8940343645     0.9278150625
 ----------------------------------------------------------------

    7    -119.0958063868      4.68E-06 Convergence criterion met
    6    -119.1390140884      3.92E-06 Convergence criterion met
 Total energy in the final basis set = -119.13901409

                    Orbital Energies (a.u.)
 --------------------------------------------------------------

 Alpha MOs
 -- Occupied --
-10.2738 -10.2652 -10.2652  -0.8818  -0.7775  -0.6798  -0.5455  -0.5239
 -0.4842  -0.4624  -0.4228  -0.4188  -0.4028

                    Cartesian Multipole Moments
 -----------------------------------------------------------------
    Charge (ESU x 10^10)
                 0.0000
    Dipole Moment (Debye)
         X      -0.0000      Y       0.0226      Z      -0.0757
       Tot       0.0790
    Quadrupole Moments (Debye-Ang)
        XX     -22.1546     XY      -0.0000     YY     -21.3692
        XZ      -0.0000     YZ      -0.1323     ZZ     -21.8606

 Total job time:  27.34s(wall), 74.40s(cpu)
        *  Thank you very much for using Q-Chem.  Have a nice day.  *
