 Q-Chem 5.3 (devel), Q-Chem, Inc., Pleasanton, CA (2020)
 Q-Chem 5.3.0 for Intel X86 EM64T Linux

User input:
--------------------------------------------------------------
$rem
   JOBTYPE  sp
   EXCHANGE   omegaB97X-D
   BASIS   6-311+G(2df,2pd)
   UNRESTRICTED   False
   max_scf_cycles   250
   geom_opt_max_cycles   1500
   basis2 6-31G*
   scf_algorithm rca_diis
   SYM_IGNORE  TRUE
   print_input   true
   geom_opt_dmax   80
   pop_mulliken false
   XC_GRID 000075000302
$end

$molecule
0 1
C       1.2669745383     0.0170058130     0.2688463753
C       -0.0000001685     0.0074241323     -0.5597787065
H       1.3429570618     -0.8460535445     0.9365121487
H       1.2438391607     0.8484227467     0.9760204836
H       2.1474223790     -0.0139796302     -0.3697640936
C       -1.2669749170     0.0170076537     0.2688460647
H       -0.0000008053     -0.7588530887     -1.3452912846
H       0.0000009065     0.7406409317     -1.3771158258
H       -1.3429621848     -0.8460505011     0.9365132635
H       -2.1474218593     -0.0139868958     -0.3697650309
H       -1.2438341719     0.8484230488     0.9760216245
$end
--------------------------------------------------------------

             Standard Nuclear Orientation (Angstroms)
    I     Atom           X                Y                Z
 ----------------------------------------------------------------
    1      C       1.2669745383     0.0170058130     0.2688463753
    2      C      -0.0000001685     0.0074241323    -0.5597787065
    3      H       1.3429570618    -0.8460535445     0.9365121487
    4      H       1.2438391607     0.8484227467     0.9760204836
    5      H       2.1474223790    -0.0139796302    -0.3697640936
    6      C      -1.2669749170     0.0170076537     0.2688460647
    7      H      -0.0000008053    -0.7588530887    -1.3452912846
    8      H       0.0000009065     0.7406409317    -1.3771158258
    9      H      -1.3429621848    -0.8460505011     0.9365132635
   10      H      -2.1474218593    -0.0139868958    -0.3697650309
   11      H      -1.2438341719     0.8484230488     0.9760216245
 ----------------------------------------------------------------

    7    -119.0877211068      5.41E-06 Convergence criterion met
    6    -119.1316154708      4.06E-06 Convergence criterion met
 Total energy in the final basis set = -119.13161547

                    Orbital Energies (a.u.)
 --------------------------------------------------------------

 Alpha MOs
 -- Occupied --
-10.2736 -10.2667 -10.2667  -0.8828  -0.7789  -0.6894  -0.5386  -0.5208
 -0.4949  -0.4549  -0.4430  -0.4188  -0.3794

                    Cartesian Multipole Moments
 -----------------------------------------------------------------
    Charge (ESU x 10^10)
                 0.0000
    Dipole Moment (Debye)
         X       0.0000      Y      -0.0739      Z      -0.1289
       Tot       0.1486
    Quadrupole Moments (Debye-Ang)
        XX     -22.0916     XY       0.0000     YY     -22.3290
        XZ      -0.0000     YZ       0.1063     ZZ     -20.8223

 Total job time:  27.09s(wall), 74.31s(cpu)
        *  Thank you very much for using Q-Chem.  Have a nice day.  *
