 Q-Chem 5.3 (devel), Q-Chem, Inc., Pleasanton, CA (2020)
 Q-Chem 5.3.0 for Intel X86 EM64T Linux

User input:
--------------------------------------------------------------
$rem
   JOBTYPE  sp
   EXCHANGE   omegaB97X-D
   BASIS   6-311+G(2df,2pd)
   UNRESTRICTED   False
   max_scf_cycles   250
   geom_opt_max_cycles   1500
   basis2 6-31G*
   scf_algorithm rca_diis
   SYM_IGNORE  TRUE
   print_input   true
   geom_opt_dmax   80
   pop_mulliken false
   XC_GRID 000075000302
$end

$molecule
0 1
C       1.2670607028     -0.0210549647     0.2601287628
C       0.0000004792     -0.0211755412     -0.5867177835
H       1.3054383702     -0.8611690910     0.8764019400
H       1.3047691118     0.8986057296     0.9310192573
H       2.1664580627     -0.0137665125     -0.3608336605
C       -1.2670574573     -0.0210552790     0.2601320835
H       0.0000000099     -0.8662648393     -1.2217072259
H       -0.0000001154     0.8822079043     -1.2639575396
H       -1.3054339557     -0.8611616942     0.8764003866
H       -2.1664689547     -0.0137673889     -0.3608387357
H       -1.3047663141     0.8986023431     0.9310175339
$end
--------------------------------------------------------------

             Standard Nuclear Orientation (Angstroms)
    I     Atom           X                Y                Z
 ----------------------------------------------------------------
    1      C       1.2670607028    -0.0210549647     0.2601287628
    2      C       0.0000004792    -0.0211755412    -0.5867177835
    3      H       1.3054383702    -0.8611690910     0.8764019400
    4      H       1.3047691118     0.8986057296     0.9310192573
    5      H       2.1664580627    -0.0137665125    -0.3608336605
    6      C      -1.2670574573    -0.0210552790     0.2601320835
    7      H       0.0000000099    -0.8662648393    -1.2217072259
    8      H      -0.0000001154     0.8822079043    -1.2639575396
    9      H      -1.3054339557    -0.8611616942     0.8764003866
   10      H      -2.1664689547    -0.0137673889    -0.3608387357
   11      H      -1.3047663141     0.8986023431     0.9310175339
 ----------------------------------------------------------------

    7    -119.0957082190      4.55E-06 Convergence criterion met
    6    -119.1389095887      3.86E-06 Convergence criterion met
 Total energy in the final basis set = -119.13890959

                    Orbital Energies (a.u.)
 --------------------------------------------------------------

 Alpha MOs
 -- Occupied --
-10.2741 -10.2650 -10.2650  -0.8818  -0.7779  -0.6788  -0.5462  -0.5240
 -0.4863  -0.4605  -0.4185  -0.4176  -0.4073

                    Cartesian Multipole Moments
 -----------------------------------------------------------------
    Charge (ESU x 10^10)
                -0.0000
    Dipole Moment (Debye)
         X       0.0000      Y      -0.1522      Z      -0.0859
       Tot       0.1747
    Quadrupole Moments (Debye-Ang)
        XX     -22.1717     XY      -0.0000     YY     -21.3581
        XZ      -0.0000     YZ       0.0023     ZZ     -21.8491

 Total job time:  26.82s(wall), 73.27s(cpu)
        *  Thank you very much for using Q-Chem.  Have a nice day.  *
