 Q-Chem 5.3 (devel), Q-Chem, Inc., Pleasanton, CA (2020)
 Q-Chem 5.3.0 for Intel X86 EM64T Linux

User input:
--------------------------------------------------------------
$rem
   JOBTYPE  sp
   EXCHANGE   omegaB97X-D
   BASIS   6-311+G(2df,2pd)
   UNRESTRICTED   False
   max_scf_cycles   250
   geom_opt_max_cycles   1500
   basis2 6-31G*
   scf_algorithm rca_diis
   SYM_IGNORE  TRUE
   print_input   true
   geom_opt_dmax   80
   pop_mulliken false
   XC_GRID 000075000302
$end

$molecule
0 1
C       1.2499017730     0.0015012115     0.2459105409
C       0.0266323938     0.0000319713     -0.5871893510
H       1.2858064215     -0.8777710044     0.8913455525
H       1.2920442502     0.8871925870     0.8820948430
H       2.1413534216     -0.0046245930     -0.3820693274
C       -1.2846991649     -0.0014793981     0.2726249812
H       0.0614674806     -0.8737725436     -1.2421770401
H       0.0590184330     0.8738770383     -1.2422486140
H       -1.3247581992     -0.8835078183     0.9158801684
H       -2.1880447199     0.0044963009     -0.3381888720
H       -1.3187221503     0.8740569145     0.9250621374
$end
--------------------------------------------------------------

             Standard Nuclear Orientation (Angstroms)
    I     Atom           X                Y                Z
 ----------------------------------------------------------------
    1      C       1.2499017730     0.0015012115     0.2459105409
    2      C       0.0266323938     0.0000319713    -0.5871893510
    3      H       1.2858064215    -0.8777710044     0.8913455525
    4      H       1.2920442502     0.8871925870     0.8820948430
    5      H       2.1413534216    -0.0046245930    -0.3820693274
    6      C      -1.2846991649    -0.0014793981     0.2726249812
    7      H       0.0614674806    -0.8737725436    -1.2421770401
    8      H       0.0590184330     0.8738770383    -1.2422486140
    9      H      -1.3247581992    -0.8835078183     0.9158801684
   10      H      -2.1880447199     0.0044963009    -0.3381888720
   11      H      -1.3187221503     0.8740569145     0.9250621374
 ----------------------------------------------------------------

    7    -119.1005946102      4.60E-06 Convergence criterion met
    6    -119.1436181000      3.99E-06 Convergence criterion met
 Total energy in the final basis set = -119.14361810

                    Orbital Energies (a.u.)
 --------------------------------------------------------------

 Alpha MOs
 -- Occupied --
-10.2739 -10.2684 -10.2617  -0.8826  -0.7770  -0.6772  -0.5465  -0.5248
 -0.4824  -0.4637  -0.4247  -0.4114  -0.4070

                    Cartesian Multipole Moments
 -----------------------------------------------------------------
    Charge (ESU x 10^10)
                 0.0000
    Dipole Moment (Debye)
         X       0.0255      Y      -0.0000      Z      -0.0848
       Tot       0.0886
    Quadrupole Moments (Debye-Ang)
        XX     -22.1584     XY       0.0010     YY     -21.3613
        XZ      -0.2095     YZ      -0.0003     ZZ     -21.8463

 Total job time:  28.40s(wall), 76.27s(cpu)
        *  Thank you very much for using Q-Chem.  Have a nice day.  *
