 Q-Chem 5.3 (devel), Q-Chem, Inc., Pleasanton, CA (2020)
 Q-Chem 5.3.0 for Intel X86 EM64T Linux

User input:
--------------------------------------------------------------
$rem
   JOBTYPE  sp
   EXCHANGE   omegaB97X-D
   BASIS   6-311+G(2df,2pd)
   UNRESTRICTED   False
   max_scf_cycles   250
   geom_opt_max_cycles   1500
   basis2 6-31G*
   scf_algorithm rca_diis
   SYM_IGNORE  TRUE
   print_input   true
   geom_opt_dmax   80
   pop_mulliken false
   XC_GRID 000075000302
$end

$molecule
0 1
C       1.2703616031     -0.0034234175     0.2444711535
C       -0.0000000029     -0.0291528359     -0.6011490878
H       1.3065548544     -0.8652602712     0.9141538167
H       1.2810439266     0.8304767988     0.9518842146
H       2.1457786508     0.1061712933     -0.3939063292
C       -1.2703615159     -0.0034230100     0.2444713626
H       -0.0000002533     -0.9347323042     -1.2124905182
H       0.0000001034     0.8279559433     -1.2785207540
H       -1.3065552914     -0.8652597388     0.9141541863
H       -2.1457787846     0.1061699299     -0.3939061722
H       -1.2810433507     0.8304782783     0.9518831465
$end
--------------------------------------------------------------

             Standard Nuclear Orientation (Angstroms)
    I     Atom           X                Y                Z
 ----------------------------------------------------------------
    1      C       1.2703616031    -0.0034234175     0.2444711535
    2      C      -0.0000000029    -0.0291528359    -0.6011490878
    3      H       1.3065548544    -0.8652602712     0.9141538167
    4      H       1.2810439266     0.8304767988     0.9518842146
    5      H       2.1457786508     0.1061712933    -0.3939063292
    6      C      -1.2703615159    -0.0034230100     0.2444713626
    7      H      -0.0000002533    -0.9347323042    -1.2124905182
    8      H       0.0000001034     0.8279559433    -1.2785207540
    9      H      -1.3065552914    -0.8652597388     0.9141541863
   10      H      -2.1457787846     0.1061699299    -0.3939061722
   11      H      -1.2810433507     0.8304782783     0.9518831465
 ----------------------------------------------------------------

    7    -119.0994546113      4.51E-06 Convergence criterion met
    5    -119.1425298370      9.90E-06 Convergence criterion met
 Total energy in the final basis set = -119.14252984

                    Orbital Energies (a.u.)
 --------------------------------------------------------------

 Alpha MOs
 -- Occupied --
-10.2748 -10.2651 -10.2650  -0.8810  -0.7770  -0.6788  -0.5442  -0.5228
 -0.4940  -0.4552  -0.4232  -0.4142  -0.4046

                    Cartesian Multipole Moments
 -----------------------------------------------------------------
    Charge (ESU x 10^10)
                -0.0000
    Dipole Moment (Debye)
         X      -0.0000      Y       0.0467      Z      -0.0360
       Tot       0.0590
    Quadrupole Moments (Debye-Ang)
        XX     -22.3604     XY       0.0000     YY     -21.6416
        XZ       0.0000     YZ      -0.1646     ZZ     -21.4853

 Total job time:  25.61s(wall), 68.23s(cpu)
        *  Thank you very much for using Q-Chem.  Have a nice day.  *
