 Q-Chem 5.3 (devel), Q-Chem, Inc., Pleasanton, CA (2020)
 Q-Chem 5.3.0 for Intel X86 EM64T Linux

User input:
--------------------------------------------------------------
$rem
   JOBTYPE  sp
   EXCHANGE   omegaB97X-D
   BASIS   6-311+G(2df,2pd)
   UNRESTRICTED   False
   max_scf_cycles   250
   geom_opt_max_cycles   1500
   basis2 6-31G*
   scf_algorithm rca_diis
   SYM_IGNORE  TRUE
   print_input   true
   geom_opt_dmax   80
   pop_mulliken false
   XC_GRID 000075000302
$end

$molecule
0 1
C       1.2738590867     0.0215674526     0.2138272637
C       -0.0000000444     -0.0223769537     -0.5575836528
H       1.2150508946     -0.8614731915     0.8569130155
H       1.2266108248     0.8697750195     0.9001472814
H       2.2296587896     -0.0004281261     -0.3049982090
C       -1.2738590425     0.0215674606     0.2138271979
H       0.0000002058     -0.8887168035     -1.2214449077
H       -0.0000001744     0.8522113051     -1.2117050527
H       -1.2150509718     -0.8614731489     0.8569130018
H       -2.2296588966     -0.0004274541     -0.3049980788
H       -1.2266107325     0.8697751061     0.9001471594
$end
--------------------------------------------------------------

             Standard Nuclear Orientation (Angstroms)
    I     Atom           X                Y                Z
 ----------------------------------------------------------------
    1      C       1.2738590867     0.0215674526     0.2138272637
    2      C      -0.0000000444    -0.0223769537    -0.5575836528
    3      H       1.2150508946    -0.8614731915     0.8569130155
    4      H       1.2266108248     0.8697750195     0.9001472814
    5      H       2.2296587896    -0.0004281261    -0.3049982090
    6      C      -1.2738590425     0.0215674606     0.2138271979
    7      H       0.0000002058    -0.8887168035    -1.2214449077
    8      H      -0.0000001744     0.8522113051    -1.2117050527
    9      H      -1.2150509718    -0.8614731489     0.8569130018
   10      H      -2.2296588966    -0.0004274541    -0.3049980788
   11      H      -1.2266107325     0.8697751061     0.9001471594
 ----------------------------------------------------------------

    7    -119.0913955812      4.58E-06 Convergence criterion met
    6    -119.1351673125      4.14E-06 Convergence criterion met
 Total energy in the final basis set = -119.13516731

                    Orbital Energies (a.u.)
 --------------------------------------------------------------

 Alpha MOs
 -- Occupied --
-10.2686 -10.2652 -10.2652  -0.8930  -0.7824  -0.6752  -0.5525  -0.5383
 -0.4790  -0.4586  -0.4478  -0.4082  -0.3909

                    Cartesian Multipole Moments
 -----------------------------------------------------------------
    Charge (ESU x 10^10)
                 0.0000
    Dipole Moment (Debye)
         X      -0.0000      Y      -0.0189      Z      -0.0524
       Tot       0.0557
    Quadrupole Moments (Debye-Ang)
        XX     -21.4999     XY      -0.0000     YY     -21.5779
        XZ      -0.0000     YZ       0.2280     ZZ     -22.3332

 Total job time:  26.32s(wall), 72.40s(cpu)
        *  Thank you very much for using Q-Chem.  Have a nice day.  *
