 Q-Chem 5.3 (devel), Q-Chem, Inc., Pleasanton, CA (2020)
 Q-Chem 5.3.0 for Intel X86 EM64T Linux

User input:
--------------------------------------------------------------
$rem
   JOBTYPE  sp
   EXCHANGE   omegaB97X-D
   BASIS   6-311+G(2df,2pd)
   UNRESTRICTED   False
   max_scf_cycles   250
   geom_opt_max_cycles   1500
   basis2 6-31G*
   scf_algorithm rca_diis
   SYM_IGNORE  TRUE
   print_input   true
   geom_opt_dmax   80
   pop_mulliken false
   XC_GRID 000075000302
$end

$molecule
0 1
C       1.2671129874     -0.0419589071     0.2309940574
C       0.0000000818     0.0330241669     -0.5858037417
H       1.4452626987     -0.9257284016     0.8417937260
H       1.0469821013     0.7954887494     0.9010088343
H       2.1812960257     0.2597900064     -0.2803711644
C       -1.2671128873     -0.0419590586     0.2309939750
H       0.0000006848     -0.9562759142     -1.0499417247
H       -0.0000007652     0.7480680062     -1.4100606385
H       -1.4452625796     -0.9257285389     0.8417936406
H       -2.1812956378     0.2597916519     -0.2803707266
H       -1.0469827704     0.7954889055     0.9010087815
$end
--------------------------------------------------------------

             Standard Nuclear Orientation (Angstroms)
    I     Atom           X                Y                Z
 ----------------------------------------------------------------
    1      C       1.2671129874    -0.0419589071     0.2309940574
    2      C       0.0000000818     0.0330241669    -0.5858037417
    3      H       1.4452626987    -0.9257284016     0.8417937260
    4      H       1.0469821013     0.7954887494     0.9010088343
    5      H       2.1812960257     0.2597900064    -0.2803711644
    6      C      -1.2671128873    -0.0419590586     0.2309939750
    7      H       0.0000006848    -0.9562759142    -1.0499417247
    8      H      -0.0000007652     0.7480680062    -1.4100606385
    9      H      -1.4452625796    -0.9257285389     0.8417936406
   10      H      -2.1812956378     0.2597916519    -0.2803707266
   11      H      -1.0469827704     0.7954889055     0.9010087815
 ----------------------------------------------------------------

    7    -119.0744487687      5.24E-06 Convergence criterion met
    6    -119.1186937827      4.39E-06 Convergence criterion met
 Total energy in the final basis set = -119.11869378

                    Orbital Energies (a.u.)
 --------------------------------------------------------------

 Alpha MOs
 -- Occupied --
-10.2729 -10.2658 -10.2658  -0.8909  -0.7798  -0.6777  -0.5531  -0.5355
 -0.4890  -0.4479  -0.4343  -0.4312  -0.3712

                    Cartesian Multipole Moments
 -----------------------------------------------------------------
    Charge (ESU x 10^10)
                 0.0000
    Dipole Moment (Debye)
         X      -0.0000      Y      -0.0084      Z      -0.0976
       Tot       0.0979
    Quadrupole Moments (Debye-Ang)
        XX     -21.7995     XY      -0.0000     YY     -21.3882
        XZ      -0.0000     YZ      -1.0036     ZZ     -22.3303

 Total job time:  27.23s(wall), 73.90s(cpu)
        *  Thank you very much for using Q-Chem.  Have a nice day.  *
