 Q-Chem 5.2 (devel), Q-Chem, Inc., Pleasanton, CA (2019)
 Q-Chem 5.2.2 for Intel X86 EM64T Linux

User input:
--------------------------------------------------------------
$rem
   JOBTYPE  sp
   EXCHANGE   omegaB97X-D
   BASIS   6-311+G(2df,2pd)
   max_scf_cycles   250
   geom_opt_max_cycles   1500
   basis2 6-31G*
   scf_algorithm rca_diis
   SYM_IGNORE  TRUE
   print_input   true
   geom_opt_dmax   80
   pop_mulliken false
   XC_GRID 000075000302
$end

$molecule
0 1
C       1.1596070405     -0.0047411074     0.2630047615
C       0.0000000529     -0.0031132858     -0.4574289104
H       1.3041222666     -0.8877157443     0.8864256888
H       1.2927215097     0.8878661621     0.8761164393
H       1.9271012415     0.0046820070     -0.5099342794
C       -1.1596066784     -0.0047408033     0.2630052879
H       -0.0000008773     -0.8702622195     -1.1224996425
H       -0.0000001598     0.8731928139     -1.1102518487
H       -1.3041222742     -0.8877159364     0.8864253810
H       -1.9270999505     0.0046823866     -0.5099347183
H       -1.2927222316     0.8878663931     0.8761168597
--------------------------------------------------------------

             Standard Nuclear Orientation (Angstroms)
    I     Atom           X                Y                Z
 ----------------------------------------------------------------
    1      C       1.1596070405    -0.0047411074     0.2630047615
    2      C       0.0000000529    -0.0031132858    -0.4574289104
    3      H       1.3041222666    -0.8877157443     0.8864256888
    4      H       1.2927215097     0.8878661621     0.8761164393
    5      H       1.9271012415     0.0046820070    -0.5099342794
    6      C      -1.1596066784    -0.0047408033     0.2630052879
    7      H      -0.0000008773    -0.8702622195    -1.1224996425
    8      H      -0.0000001598     0.8731928139    -1.1102518487
    9      H      -1.3041222742    -0.8877159364     0.8864253810
   10      H      -1.9270999505     0.0046823866    -0.5099347183
   11      H      -1.2927222316     0.8878663931     0.8761168597
 ----------------------------------------------------------------

    7    -119.0575173191      5.10E-06 Convergence criterion met
    6    -119.1038488647      2.90E-06 Convergence criterion met
 Total energy in the final basis set = -119.10384886

                    Orbital Energies (a.u.)
 --------------------------------------------------------------

 Alpha MOs
 -- Occupied --
-10.2496 -10.2495 -10.2469  -0.9313  -0.7943  -0.6643  -0.5749  -0.5463
 -0.5131  -0.4663  -0.4159  -0.4072  -0.3897

                    Cartesian Multipole Moments
 -----------------------------------------------------------------
    Charge (ESU x 10^10)
                 0.0000
    Dipole Moment (Debye)
         X      -0.0000      Y       0.0064      Z      -0.1903
       Tot       0.1904
    Quadrupole Moments (Debye-Ang)
        XX     -22.9973     XY      -0.0000     YY     -21.0439
        XZ       0.0000     YZ      -0.0363     ZZ     -21.6346

 Total job time:  50.35s(wall), 140.57s(cpu)
        *  Thank you very much for using Q-Chem.  Have a nice day.  *
