 Q-Chem 5.3 (devel), Q-Chem, Inc., Pleasanton, CA (2020)
 Q-Chem 5.3.0 for Intel X86 EM64T Linux

User input:
--------------------------------------------------------------
$rem
   JOBTYPE  sp
   EXCHANGE   omegaB97X-D
   BASIS   6-311+G(2df,2pd)
   UNRESTRICTED   False
   max_scf_cycles   250
   geom_opt_max_cycles   1500
   basis2 6-31G*
   scf_algorithm rca_diis
   SYM_IGNORE  TRUE
   print_input   true
   geom_opt_dmax   80
   pop_mulliken false
   XC_GRID 000075000302
$end

$molecule
0 1
C       1.2821691300     0.0001455559     0.2694324340
C       0.0125457204     -0.0000138400     -0.5872760848
H       1.3111359346     -0.8077116660     0.8584169387
H       1.3116011796     0.8086723970     0.8574084389
H       2.1160515241     -0.0004570477     -0.3067714997
C       -1.2521739312     -0.0001260033     0.2494707810
H       0.0161618718     -0.8739034844     -1.2430637826
H       0.0159698694     0.8738401500     -1.2431120345
H       -1.3004285099     -0.9533523739     0.9493574170
H       -2.2131526656     0.0005396580     -0.4132777060
H       -1.2998801837     0.9523673201     0.9504601169
$end
--------------------------------------------------------------

             Standard Nuclear Orientation (Angstroms)
    I     Atom           X                Y                Z
 ----------------------------------------------------------------
    1      C       1.2821691300     0.0001455559     0.2694324340
    2      C       0.0125457204    -0.0000138400    -0.5872760848
    3      H       1.3111359346    -0.8077116660     0.8584169387
    4      H       1.3116011796     0.8086723970     0.8574084389
    5      H       2.1160515241    -0.0004570477    -0.3067714997
    6      C      -1.2521739312    -0.0001260033     0.2494707810
    7      H       0.0161618718    -0.8739034844    -1.2430637826
    8      H       0.0159698694     0.8738401500    -1.2431120345
    9      H      -1.3004285099    -0.9533523739     0.9493574170
   10      H      -2.2131526656     0.0005396580    -0.4132777060
   11      H      -1.2998801837     0.9523673201     0.9504601169
 ----------------------------------------------------------------

    7    -119.0738921862      5.07E-06 Convergence criterion met
    6    -119.1178926212      4.23E-06 Convergence criterion met
 Total energy in the final basis set = -119.11789262

                    Orbital Energies (a.u.)
 --------------------------------------------------------------

 Alpha MOs
 -- Occupied --
-10.2916 -10.2746 -10.2365  -0.8839  -0.7810  -0.6752  -0.5484  -0.5269
 -0.4824  -0.4656  -0.4254  -0.4103  -0.4051

                    Cartesian Multipole Moments
 -----------------------------------------------------------------
    Charge (ESU x 10^10)
                 0.0000
    Dipole Moment (Debye)
         X       0.1954      Y       0.0000      Z      -0.0995
       Tot       0.2193
    Quadrupole Moments (Debye-Ang)
        XX     -22.1571     XY      -0.0001     YY     -21.3569
        XZ       0.1963     YZ      -0.0000     ZZ     -21.8236

 Total job time:  28.61s(wall), 77.04s(cpu)
        *  Thank you very much for using Q-Chem.  Have a nice day.  *
