 Q-Chem 5.3 (devel), Q-Chem, Inc., Pleasanton, CA (2020)
 Q-Chem 5.3.0 for Intel X86 EM64T Linux

User input:
--------------------------------------------------------------
$rem
   JOBTYPE  sp
   EXCHANGE   omegaB97X-D
   BASIS   6-311+G(2df,2pd)
   UNRESTRICTED   False
   max_scf_cycles   250
   geom_opt_max_cycles   1500
   basis2 6-31G*
   scf_algorithm rca_diis
   SYM_IGNORE  TRUE
   print_input   true
   geom_opt_dmax   80
   pop_mulliken false
   XC_GRID 000075000302
$end

$molecule
0 1
C       1.2723914532     0.0128787919     0.2546926059
C       0.0056121922     0.0003385002     -0.5875747639
H       1.3536968227     -0.8565653029     0.9139910818
H       1.2592712776     0.8652161379     0.9349553935
H       2.1577458384     -0.0567183914     -0.3765086822
C       -1.2618703153     -0.0118442210     0.2635977613
H       0.0078489885     -0.8737093427     -1.2431601333
H       -0.0171033036     0.8738474091     -1.2434886536
H       -1.2565370860     -0.9016288265     0.8924047747
H       -2.1691738283     0.0558662227     -0.3391880833
H       -1.3518821000     0.8923196886     0.8713237181
$end
--------------------------------------------------------------

             Standard Nuclear Orientation (Angstroms)
    I     Atom           X                Y                Z
 ----------------------------------------------------------------
    1      C       1.2723914532     0.0128787919     0.2546926059
    2      C       0.0056121922     0.0003385002    -0.5875747639
    3      H       1.3536968227    -0.8565653029     0.9139910818
    4      H       1.2592712776     0.8652161379     0.9349553935
    5      H       2.1577458384    -0.0567183914    -0.3765086822
    6      C      -1.2618703153    -0.0118442210     0.2635977613
    7      H       0.0078489885    -0.8737093427    -1.2431601333
    8      H      -0.0171033036     0.8738474091    -1.2434886536
    9      H      -1.2565370860    -0.9016288265     0.8924047747
   10      H      -2.1691738283     0.0558662227    -0.3391880833
   11      H      -1.3518821000     0.8923196886     0.8713237181
 ----------------------------------------------------------------

    7    -119.0995526263      4.70E-06 Convergence criterion met
    6    -119.1426556717      3.89E-06 Convergence criterion met
 Total energy in the final basis set = -119.14265567

                    Orbital Energies (a.u.)
 --------------------------------------------------------------

 Alpha MOs
 -- Occupied --
-10.2740 -10.2652 -10.2652  -0.8813  -0.7775  -0.6781  -0.5466  -0.5266
 -0.4825  -0.4613  -0.4224  -0.4168  -0.4028

                    Cartesian Multipole Moments
 -----------------------------------------------------------------
    Charge (ESU x 10^10)
                -0.0000
    Dipole Moment (Debye)
         X      -0.0170      Y      -0.0021      Z      -0.0826
       Tot       0.0843
    Quadrupole Moments (Debye-Ang)
        XX     -22.1625     XY      -0.4776     YY     -21.3728
        XZ       0.0166     YZ      -0.0006     ZZ     -21.8562

 Total job time:  27.97s(wall), 75.81s(cpu)
        *  Thank you very much for using Q-Chem.  Have a nice day.  *
