 Q-Chem 5.3 (devel), Q-Chem, Inc., Pleasanton, CA (2020)
 Q-Chem 5.3.0 for Intel X86 EM64T Linux

User input:
--------------------------------------------------------------
$rem
   JOBTYPE  sp
   EXCHANGE   omegaB97X-D
   BASIS   6-311+G(2df,2pd)
   UNRESTRICTED   False
   max_scf_cycles   250
   geom_opt_max_cycles   1500
   basis2 6-31G*
   scf_algorithm rca_diis
   SYM_IGNORE  TRUE
   print_input   true
   geom_opt_dmax   80
   pop_mulliken false
   XC_GRID 000075000302
$end

$molecule
0 1
C       1.2735126234     -0.0063318650     0.2286198846
C       0.0000000007     -0.0582118538     -0.6151050514
H       1.3074544954     -0.8483385457     0.9234526642
H       1.2616610535     0.7762458440     0.9948679559
H       2.1167989112     0.2136730273     -0.4218658803
C       -1.2735123898     -0.0063310331     0.2286203479
H       -0.0000005116     -0.9935222449     -1.1799615092
H       0.0000002511     0.7812363349     -1.3140369146
H       -1.3074552811     -0.8483374697     0.9234534507
H       -2.1167994957     0.2136695036     -0.4218659299
H       -1.2616597178     0.7762489684     0.9948660010
$end
--------------------------------------------------------------

             Standard Nuclear Orientation (Angstroms)
    I     Atom           X                Y                Z
 ----------------------------------------------------------------
    1      C       1.2735126234    -0.0063318650     0.2286198846
    2      C       0.0000000007    -0.0582118538    -0.6151050514
    3      H       1.3074544954    -0.8483385457     0.9234526642
    4      H       1.2616610535     0.7762458440     0.9948679559
    5      H       2.1167989112     0.2136730273    -0.4218658803
    6      C      -1.2735123898    -0.0063310331     0.2286203479
    7      H      -0.0000005116    -0.9935222449    -1.1799615092
    8      H       0.0000002511     0.7812363349    -1.3140369146
    9      H      -1.3074552811    -0.8483374697     0.9234534507
   10      H      -2.1167994957     0.2136695036    -0.4218659299
   11      H      -1.2616597178     0.7762489684     0.9948660010
 ----------------------------------------------------------------

    7    -119.0882979699      4.85E-06 Convergence criterion met
    5    -119.1319227690      9.82E-06 Convergence criterion met
 Total energy in the final basis set = -119.13192277

                    Orbital Energies (a.u.)
 --------------------------------------------------------------

 Alpha MOs
 -- Occupied --
-10.2753 -10.2652 -10.2652  -0.8811  -0.7776  -0.6807  -0.5476  -0.5167
 -0.5056  -0.4511  -0.4280  -0.4041  -0.4006

                    Cartesian Multipole Moments
 -----------------------------------------------------------------
    Charge (ESU x 10^10)
                -0.0000
    Dipole Moment (Debye)
         X      -0.0000      Y       0.0977      Z       0.0241
       Tot       0.1006
    Quadrupole Moments (Debye-Ang)
        XX     -22.6340     XY       0.0000     YY     -21.8732
        XZ       0.0000     YZ      -0.3820     ZZ     -21.1558

 Total job time:  24.66s(wall), 66.68s(cpu)
        *  Thank you very much for using Q-Chem.  Have a nice day.  *
