 Q-Chem 5.3 (devel), Q-Chem, Inc., Pleasanton, CA (2020)
 Q-Chem 5.3.0 for Intel X86 EM64T Linux

User input:
--------------------------------------------------------------
$rem
   JOBTYPE  sp
   EXCHANGE   omegaB97X-D
   BASIS   6-311+G(2df,2pd)
   UNRESTRICTED   False
   max_scf_cycles   250
   geom_opt_max_cycles   1500
   basis2 6-31G*
   scf_algorithm rca_diis
   SYM_IGNORE  TRUE
   print_input   true
   geom_opt_dmax   80
   pop_mulliken false
   XC_GRID 000075000302
$end

$molecule
0 1
C       1.2899862043     -0.0006869439     0.3097592489
C       0.0000004392     0.0005072306     -0.5558586294
H       1.1981188482     -0.9171163909     0.8911594021
H       1.2044102337     0.9183232869     0.8881216956
H       2.0926481961     -0.0028711592     -0.4243106494
C       -1.2899853176     -0.0006867637     0.3097590053
H       -0.0000001272     -0.8700064663     -1.2183989725
H       0.0000004717     0.8742013869     -1.2141570170
H       -1.1981195516     -0.9171159188     0.8911598917
H       -2.0926487822     -0.0028718650     -0.4243094538
H       -1.2044106753     0.9183242694     0.8881204974
$end
--------------------------------------------------------------

             Standard Nuclear Orientation (Angstroms)
    I     Atom           X                Y                Z
 ----------------------------------------------------------------
    1      C       1.2899862043    -0.0006869439     0.3097592489
    2      C       0.0000004392     0.0005072306    -0.5558586294
    3      H       1.1981188482    -0.9171163909     0.8911594021
    4      H       1.2044102337     0.9183232869     0.8881216956
    5      H       2.0926481961    -0.0028711592    -0.4243106494
    6      C      -1.2899853176    -0.0006867637     0.3097590053
    7      H      -0.0000001272    -0.8700064663    -1.2183989725
    8      H       0.0000004717     0.8742013869    -1.2141570170
    9      H      -1.1981195516    -0.9171159188     0.8911598917
   10      H      -2.0926487822    -0.0028718650    -0.4243094538
   11      H      -1.2044106753     0.9183242694     0.8881204974
 ----------------------------------------------------------------

    7    -119.0884683932      5.25E-06 Convergence criterion met
    6    -119.1318562110      4.29E-06 Convergence criterion met
 Total energy in the final basis set = -119.13185621

                    Orbital Energies (a.u.)
 --------------------------------------------------------------

 Alpha MOs
 -- Occupied --
-10.2715 -10.2672 -10.2672  -0.8803  -0.7759  -0.6673  -0.5536  -0.5263
 -0.4846  -0.4756  -0.4114  -0.4099  -0.4007

                    Cartesian Multipole Moments
 -----------------------------------------------------------------
    Charge (ESU x 10^10)
                -0.0000
    Dipole Moment (Debye)
         X      -0.0000      Y       0.0022      Z      -0.2239
       Tot       0.2239
    Quadrupole Moments (Debye-Ang)
        XX     -23.2327     XY       0.0000     YY     -21.0321
        XZ      -0.0000     YZ       0.0028     ZZ     -22.0698

 Total job time:  27.08s(wall), 73.93s(cpu)
        *  Thank you very much for using Q-Chem.  Have a nice day.  *
