 Q-Chem 5.3 (devel), Q-Chem, Inc., Pleasanton, CA (2020)
 Q-Chem 5.3.0 for Intel X86 EM64T Linux

User input:
--------------------------------------------------------------
$rem
   JOBTYPE  sp
   EXCHANGE   omegaB97X-D
   BASIS   6-311+G(2df,2pd)
   UNRESTRICTED   False
   max_scf_cycles   250
   geom_opt_max_cycles   1500
   basis2 6-31G*
   scf_algorithm rca_diis
   SYM_IGNORE  TRUE
   print_input   true
   geom_opt_dmax   80
   pop_mulliken false
   XC_GRID 000075000302
$end

$molecule
0 1
C       1.3765102624     -0.0081377905     0.2922583286
C       0.0125007974     0.0058427289     -0.5781376841
H       1.1522468361     -0.9460995476     0.7937460175
H       1.1274637520     0.8918133304     0.8480149226
H       2.1040483794     0.0102206805     -0.5118435004
C       -1.1528379444     0.0059850142     0.2506072335
H       0.1825016819     -0.8624035966     -1.2192341718
H       0.2005751505     0.8802457566     -1.2056757725
H       -1.3916181534     -0.7829088200     0.9741212472
H       -2.1537407506     -0.0367399752     -0.1948751561
H       -1.4576500718     0.8421828854     0.8920635543
$end
--------------------------------------------------------------

             Standard Nuclear Orientation (Angstroms)
    I     Atom           X                Y                Z
 ----------------------------------------------------------------
    1      C       1.3765102624    -0.0081377905     0.2922583286
    2      C       0.0125007974     0.0058427289    -0.5781376841
    3      H       1.1522468361    -0.9460995476     0.7937460175
    4      H       1.1274637520     0.8918133304     0.8480149226
    5      H       2.1040483794     0.0102206805    -0.5118435004
    6      C      -1.1528379444     0.0059850142     0.2506072335
    7      H       0.1825016819    -0.8624035966    -1.2192341718
    8      H       0.2005751505     0.8802457566    -1.2056757725
    9      H      -1.3916181534    -0.7829088200     0.9741212472
   10      H      -2.1537407506    -0.0367399752    -0.1948751561
   11      H      -1.4576500718     0.8421828854     0.8920635543
 ----------------------------------------------------------------

    7    -119.0467805895      6.57E-06 Convergence criterion met
    6    -119.0929498786      5.53E-06 Convergence criterion met
 Total energy in the final basis set = -119.09294988

                    Orbital Energies (a.u.)
 --------------------------------------------------------------

 Alpha MOs
 -- Occupied --
-10.2764 -10.2679 -10.2658  -0.8915  -0.7856  -0.6800  -0.5533  -0.5498
 -0.4713  -0.4623  -0.4539  -0.4034  -0.3644

                    Cartesian Multipole Moments
 -----------------------------------------------------------------
    Charge (ESU x 10^10)
                 0.0000
    Dipole Moment (Debye)
         X      -0.3621      Y       0.0051      Z      -0.1963
       Tot       0.4119
    Quadrupole Moments (Debye-Ang)
        XX     -22.3771     XY      -0.0311     YY     -21.4899
        XZ      -2.0277     YZ       0.0008     ZZ     -22.2563

 Total job time:  27.67s(wall), 74.92s(cpu)
        *  Thank you very much for using Q-Chem.  Have a nice day.  *
