 Q-Chem 5.3 (devel), Q-Chem, Inc., Pleasanton, CA (2020)
 Q-Chem 5.3.0 for Intel X86 EM64T Linux

User input:
--------------------------------------------------------------
$rem
   JOBTYPE  sp
   EXCHANGE   omegaB97X-D
   BASIS   6-311+G(2df,2pd)
   UNRESTRICTED   False
   max_scf_cycles   250
   geom_opt_max_cycles   1500
   basis2 6-31G*
   scf_algorithm rca_diis
   SYM_IGNORE  TRUE
   print_input   true
   geom_opt_dmax   80
   pop_mulliken false
   XC_GRID 000075000302
$end

$molecule
0 1
C       1.2527487201     -0.0552775700     0.2787509725
C       -0.0071863243     -0.0003732435     -0.5866355493
H       1.4051109562     -0.8714305413     0.9847781741
H       1.2280267949     0.8832070692     0.8389508846
H       2.1241912508     0.0180818996     -0.3737403131
C       -1.2795009231     0.0594040095     0.2402855378
H       -0.1251086952     -0.8669117519     -1.2415874924
H       0.1674489142     0.8566790668     -1.2414030788
H       -1.1998227314     -0.8711598147     0.8097297258
H       -2.1984156528     -0.0145908958     -0.3409437643
H       -1.3674923700     0.8623724381     0.9728599220
$end
--------------------------------------------------------------

             Standard Nuclear Orientation (Angstroms)
    I     Atom           X                Y                Z
 ----------------------------------------------------------------
    1      C       1.2527487201    -0.0552775700     0.2787509725
    2      C      -0.0071863243    -0.0003732435    -0.5866355493
    3      H       1.4051109562    -0.8714305413     0.9847781741
    4      H       1.2280267949     0.8832070692     0.8389508846
    5      H       2.1241912508     0.0180818996    -0.3737403131
    6      C      -1.2795009231     0.0594040095     0.2402855378
    7      H      -0.1251086952    -0.8669117519    -1.2415874924
    8      H       0.1674489142     0.8566790668    -1.2414030788
    9      H      -1.1998227314    -0.8711598147     0.8097297258
   10      H      -2.1984156528    -0.0145908958    -0.3409437643
   11      H      -1.3674923700     0.8623724381     0.9728599220
 ----------------------------------------------------------------

    7    -119.0943762608      4.63E-06 Convergence criterion met
    6    -119.1375871478      4.00E-06 Convergence criterion met
 Total energy in the final basis set = -119.13758715

                    Orbital Energies (a.u.)
 --------------------------------------------------------------

 Alpha MOs
 -- Occupied --
-10.2758 -10.2660 -10.2650  -0.8834  -0.7785  -0.6777  -0.5483  -0.5260
 -0.4816  -0.4646  -0.4192  -0.4142  -0.4053

                    Cartesian Multipole Moments
 -----------------------------------------------------------------
    Charge (ESU x 10^10)
                -0.0000
    Dipole Moment (Debye)
         X       0.0243      Y      -0.0136      Z      -0.0711
       Tot       0.0763
    Quadrupole Moments (Debye-Ang)
        XX     -22.1055     XY       0.0666     YY     -21.4773
        XZ       0.0207     YZ       0.0237     ZZ     -21.8385

 Total job time:  27.95s(wall), 75.46s(cpu)
        *  Thank you very much for using Q-Chem.  Have a nice day.  *
