 Q-Chem 5.3 (devel), Q-Chem, Inc., Pleasanton, CA (2020)
 Q-Chem 5.3.0 for Intel X86 EM64T Linux

User input:
--------------------------------------------------------------
$rem
   JOBTYPE  sp
   EXCHANGE   omegaB97X-D
   BASIS   6-311+G(2df,2pd)
   UNRESTRICTED   False
   max_scf_cycles   250
   geom_opt_max_cycles   1500
   basis2 6-31G*
   scf_algorithm rca_diis
   SYM_IGNORE  TRUE
   print_input   true
   geom_opt_dmax   80
   pop_mulliken false
   XC_GRID 000075000302
$end

$molecule
0 1
C       1.2944638988     -0.0015237052     0.2650423882
C       0.0023405222     0.0003545572     -0.5866451088
H       1.2737893448     -0.9012506776     0.8811430651
H       1.2635642651     0.8864510452     0.8973973813
H       2.1572748410     0.0051901234     -0.3993404277
C       -1.2396367709     0.0013795955     0.2554242425
H       0.0448557776     -0.8731568905     -1.2415702149
H       0.0490016776     0.8742925254     -1.2407183848
H       -1.3325849157     -0.8582949988     0.9241227956
H       -2.1676683957     -0.0068420015     -0.3199421721
H       -1.3454003056     0.8734010930     0.9061314545
$end
--------------------------------------------------------------

             Standard Nuclear Orientation (Angstroms)
    I     Atom           X                Y                Z
 ----------------------------------------------------------------
    1      C       1.2944638988    -0.0015237052     0.2650423882
    2      C       0.0023405222     0.0003545572    -0.5866451088
    3      H       1.2737893448    -0.9012506776     0.8811430651
    4      H       1.2635642651     0.8864510452     0.8973973813
    5      H       2.1572748410     0.0051901234    -0.3993404277
    6      C      -1.2396367709     0.0013795955     0.2554242425
    7      H       0.0448557776    -0.8731568905    -1.2415702149
    8      H       0.0490016776     0.8742925254    -1.2407183848
    9      H      -1.3325849157    -0.8582949988     0.9241227956
   10      H      -2.1676683957    -0.0068420015    -0.3199421721
   11      H      -1.3454003056     0.8734010930     0.9061314545
 ----------------------------------------------------------------

    7    -119.0997258066      4.73E-06 Convergence criterion met
    6    -119.1428315560      4.15E-06 Convergence criterion met
 Total energy in the final basis set = -119.14283156

                    Orbital Energies (a.u.)
 --------------------------------------------------------------

 Alpha MOs
 -- Occupied --
-10.2741 -10.2658 -10.2647  -0.8817  -0.7776  -0.6778  -0.5462  -0.5264
 -0.4809  -0.4636  -0.4303  -0.4073  -0.4053

                    Cartesian Multipole Moments
 -----------------------------------------------------------------
    Charge (ESU x 10^10)
                 0.0000
    Dipole Moment (Debye)
         X      -0.0620      Y       0.0002      Z      -0.0912
       Tot       0.1103
    Quadrupole Moments (Debye-Ang)
        XX     -22.1770     XY      -0.0113     YY     -21.3696
        XZ      -0.4943     YZ      -0.0000     ZZ     -21.8671

 Total job time:  28.13s(wall), 75.82s(cpu)
        *  Thank you very much for using Q-Chem.  Have a nice day.  *
