 Q-Chem 5.3 (devel), Q-Chem, Inc., Pleasanton, CA (2020)
 Q-Chem 5.3.0 for Intel X86 EM64T Linux

User input:
--------------------------------------------------------------
$rem
   JOBTYPE  sp
   EXCHANGE   omegaB97X-D
   BASIS   6-311+G(2df,2pd)
   UNRESTRICTED   False
   max_scf_cycles   250
   geom_opt_max_cycles   1500
   basis2 6-31G*
   scf_algorithm rca_diis
   SYM_IGNORE  TRUE
   print_input   true
   geom_opt_dmax   80
   pop_mulliken false
   XC_GRID 000075000302
$end

$molecule
0 1
C       1.3064856162     -0.0300839113     0.1981018101
C       0.0275588919     0.0027928536     -0.5881571401
H       1.3010054570     -0.9262516789     0.8219181032
H       1.1977281189     0.8122653248     0.8859984177
H       2.2769250663     0.0520207223     -0.2892517199
C       -1.2233990003     0.0334300939     0.3205091585
H       -0.1210916187     -0.8645115303     -1.2358011488
H       -0.0198223772     0.8796789289     -1.2382206287
H       -1.2968185665     -0.8316133644     0.9826017131
H       -2.0259787878     -0.0657687580     -0.4131574626
H       -1.4225928603     0.9380419854     0.8965039163
$end
--------------------------------------------------------------

             Standard Nuclear Orientation (Angstroms)
    I     Atom           X                Y                Z
 ----------------------------------------------------------------
    1      C       1.3064856162    -0.0300839113     0.1981018101
    2      C       0.0275588919     0.0027928536    -0.5881571401
    3      H       1.3010054570    -0.9262516789     0.8219181032
    4      H       1.1977281189     0.8122653248     0.8859984177
    5      H       2.2769250663     0.0520207223    -0.2892517199
    6      C      -1.2233990003     0.0334300939     0.3205091585
    7      H      -0.1210916187    -0.8645115303    -1.2358011488
    8      H      -0.0198223772     0.8796789289    -1.2382206287
    9      H      -1.2968185665    -0.8316133644     0.9826017131
   10      H      -2.0259787878    -0.0657687580    -0.4131574626
   11      H      -1.4225928603     0.9380419854     0.8965039163
 ----------------------------------------------------------------

    7    -119.0940736904      4.63E-06 Convergence criterion met
    6    -119.1373035172      3.99E-06 Convergence criterion met
 Total energy in the final basis set = -119.13730352

                    Orbital Energies (a.u.)
 --------------------------------------------------------------

 Alpha MOs
 -- Occupied --
-10.2758 -10.2668 -10.2633  -0.8833  -0.7782  -0.6779  -0.5469  -0.5271
 -0.4830  -0.4643  -0.4183  -0.4123  -0.4067

                    Cartesian Multipole Moments
 -----------------------------------------------------------------
    Charge (ESU x 10^10)
                 0.0000
    Dipole Moment (Debye)
         X      -0.0681      Y       0.0083      Z      -0.0873
       Tot       0.1110
    Quadrupole Moments (Debye-Ang)
        XX     -22.1384     XY       0.0069     YY     -21.3730
        XZ      -0.0544     YZ      -0.0227     ZZ     -21.9136

 Total job time:  28.35s(wall), 76.40s(cpu)
        *  Thank you very much for using Q-Chem.  Have a nice day.  *
