 Q-Chem 5.2 (devel), Q-Chem, Inc., Pleasanton, CA (2019)
 Q-Chem 5.2.2 for Intel X86 EM64T Linux

User input:
--------------------------------------------------------------
$rem
   JOBTYPE  sp
   EXCHANGE   omegaB97X-D
   BASIS   6-311+G(2df,2pd)
   max_scf_cycles   250
   geom_opt_max_cycles   1500
   basis2 6-31G*
   scf_algorithm rca_diis
   SYM_IGNORE  TRUE
   print_input   true
   geom_opt_dmax   80
   pop_mulliken false
   XC_GRID 000075000302
$end

$molecule
0 1
C       1.2873332900     0.0529942156     0.2382621381
C       0.0226755473     0.0051852339     -0.5908878092
H       1.5050365005     -0.7751751797     0.9304690745
H       1.1231347845     0.7853769411     1.0242522344
H       2.1212032771     -0.2197673494     -0.4031017215
C       -1.2453632440     -0.0392531669     0.2732026622
H       0.0296075543     -0.8703356849     -1.2444719562
H       -0.0655856422     0.8740478742     -1.2474279430
H       -1.1070701041     -0.9371914911     0.8620091506
H       -2.1694925277     0.2117013970     -0.2561280258
H       -1.5014794964     0.9124178762     0.7548672148
--------------------------------------------------------------

             Standard Nuclear Orientation (Angstroms)
    I     Atom           X                Y                Z
 ----------------------------------------------------------------
    1      C       1.2873332900     0.0529942156     0.2382621381
    2      C       0.0226755473     0.0051852339    -0.5908878092
    3      H       1.5050365005    -0.7751751797     0.9304690745
    4      H       1.1231347845     0.7853769411     1.0242522344
    5      H       2.1212032771    -0.2197673494    -0.4031017215
    6      C      -1.2453632440    -0.0392531669     0.2732026622
    7      H       0.0296075543    -0.8703356849    -1.2444719562
    8      H      -0.0655856422     0.8740478742    -1.2474279430
    9      H      -1.1070701041    -0.9371914911     0.8620091506
   10      H      -2.1694925277     0.2117013970    -0.2561280258
   11      H      -1.5014794964     0.9124178762     0.7548672148
 ----------------------------------------------------------------

    7    -119.0447524003      7.47E-06 Convergence criterion met
    6    -119.0909714875      4.21E-06 Convergence criterion met
 Total energy in the final basis set = -119.09097149

                    Orbital Energies (a.u.)
 --------------------------------------------------------------

 Alpha MOs
 -- Occupied --
-10.2749 -10.2665 -10.2660  -0.8844  -0.7843  -0.6839  -0.5615  -0.5483
 -0.4830  -0.4452  -0.4337  -0.4015  -0.3713

                    Cartesian Multipole Moments
 -----------------------------------------------------------------
    Charge (ESU x 10^10)
                -0.0000
    Dipole Moment (Debye)
         X      -0.1044      Y      -0.0298      Z      -0.0390
       Tot       0.1154
    Quadrupole Moments (Debye-Ang)
        XX     -22.0632     XY      -1.9962     YY     -21.5571
        XZ       0.0892     YZ      -0.0459     ZZ     -22.0696

 Total job time:  49.43s(wall), 138.13s(cpu)
        *  Thank you very much for using Q-Chem.  Have a nice day.  *
