 Q-Chem 5.3 (devel), Q-Chem, Inc., Pleasanton, CA (2020)
 Q-Chem 5.3.0 for Intel X86 EM64T Linux

User input:
--------------------------------------------------------------
$rem
   JOBTYPE  sp
   EXCHANGE   omegaB97X-D
   BASIS   6-311+G(2df,2pd)
   UNRESTRICTED   False
   max_scf_cycles   250
   geom_opt_max_cycles   1500
   basis2 6-31G*
   scf_algorithm rca_diis
   SYM_IGNORE  TRUE
   print_input   true
   geom_opt_dmax   80
   pop_mulliken false
   XC_GRID 000075000302
$end

$molecule
0 1
C       1.1315454067     -0.0102407353     0.2658422103
C       0.0000000598     0.0137082069     -0.4240001438
H       1.2728561106     -0.8828107361     0.9038784962
H       1.3259185176     0.8968584246     0.8397019815
H       1.8586188320     -0.0514070761     -0.5438627114
C       -1.1315449508     -0.0102401339     0.2658429262
H       -0.0000012624     -0.8298524410     -1.1188377033
H       -0.0000000195     0.9113433615     -1.0472373918
H       -1.2728557030     -0.8828100468     0.9038792723
H       -1.8586171017     -0.0514077348     -0.5438631282
H       -1.3259199499     0.8968595769     0.8397012111
$end
--------------------------------------------------------------

             Standard Nuclear Orientation (Angstroms)
    I     Atom           X                Y                Z
 ----------------------------------------------------------------
    1      C       1.1315454067    -0.0102407353     0.2658422103
    2      C       0.0000000598     0.0137082069    -0.4240001438
    3      H       1.2728561106    -0.8828107361     0.9038784962
    4      H       1.3259185176     0.8968584246     0.8397019815
    5      H       1.8586188320    -0.0514070761    -0.5438627114
    6      C      -1.1315449508    -0.0102401339     0.2658429262
    7      H      -0.0000012624    -0.8298524410    -1.1188377033
    8      H      -0.0000000195     0.9113433615    -1.0472373918
    9      H      -1.2728557030    -0.8828100468     0.9038792723
   10      H      -1.8586171017    -0.0514077348    -0.5438631282
   11      H      -1.3259199499     0.8968595769     0.8397012111
 ----------------------------------------------------------------

    7    -119.0264503084      5.48E-06 Convergence criterion met
    6    -119.0744224998      2.62E-06 Convergence criterion met
 Total energy in the final basis set = -119.07442250

                    Orbital Energies (a.u.)
 --------------------------------------------------------------

 Alpha MOs
 -- Occupied --
-10.2453 -10.2452 -10.2403  -0.9462  -0.8009  -0.6615  -0.5843  -0.5537
 -0.5212  -0.4675  -0.4132  -0.4023  -0.3845

                    Cartesian Multipole Moments
 -----------------------------------------------------------------
    Charge (ESU x 10^10)
                 0.0000
    Dipole Moment (Debye)
         X      -0.0000      Y       0.0206      Z      -0.2168
       Tot       0.2178
    Quadrupole Moments (Debye-Ang)
        XX     -23.1992     XY      -0.0000     YY     -20.9489
        XZ       0.0000     YZ      -0.0282     ZZ     -21.5940

 Total job time:  28.99s(wall), 78.63s(cpu)
        *  Thank you very much for using Q-Chem.  Have a nice day.  *
