 Q-Chem 5.3 (devel), Q-Chem, Inc., Pleasanton, CA (2020)
 Q-Chem 5.3.0 for Intel X86 EM64T Linux

User input:
--------------------------------------------------------------
$rem
   JOBTYPE  sp
   EXCHANGE   omegaB97X-D
   BASIS   6-311+G(2df,2pd)
   UNRESTRICTED   False
   max_scf_cycles   250
   geom_opt_max_cycles   1500
   basis2 6-31G*
   scf_algorithm rca_diis
   SYM_IGNORE  TRUE
   print_input   true
   geom_opt_dmax   80
   pop_mulliken false
   XC_GRID 000075000302
$end

$molecule
0 1
C       1.2649486447     -0.0516574347     0.2162055620
C       0.0000000942     0.0445071848     -0.5926953215
H       1.4837295097     -0.9326098659     0.8160548155
H       0.9483153676     0.7506975522     0.8921074273
H       2.1718455605     0.3550530015     -0.2311426726
C       -1.2649485682     -0.0516576299     0.2162054043
H       0.0000009111     -0.9771636887     -0.9805802268
H       -0.0000009711     0.6896888909     -1.4721300144
H       -1.4837293843     -0.9326100743     0.8160546252
H       -2.1718449650     0.3550549335     -0.2311419875
H       -0.9483162599     0.7506977966     0.8921074074
$end
--------------------------------------------------------------

             Standard Nuclear Orientation (Angstroms)
    I     Atom           X                Y                Z
 ----------------------------------------------------------------
    1      C       1.2649486447    -0.0516574347     0.2162055620
    2      C       0.0000000942     0.0445071848    -0.5926953215
    3      H       1.4837295097    -0.9326098659     0.8160548155
    4      H       0.9483153676     0.7506975522     0.8921074273
    5      H       2.1718455605     0.3550530015    -0.2311426726
    6      C      -1.2649485682    -0.0516576299     0.2162054043
    7      H       0.0000009111    -0.9771636887    -0.9805802268
    8      H      -0.0000009711     0.6896888909    -1.4721300144
    9      H      -1.4837293843    -0.9326100743     0.8160546252
   10      H      -2.1718449650     0.3550549335    -0.2311419875
   11      H      -0.9483162599     0.7506977966     0.8921074074
 ----------------------------------------------------------------

    7    -119.0509617040      5.82E-06 Convergence criterion met
    6    -119.0962756256      4.67E-06 Convergence criterion met
 Total energy in the final basis set = -119.09627563

                    Orbital Energies (a.u.)
 --------------------------------------------------------------

 Alpha MOs
 -- Occupied --
-10.2736 -10.2663 -10.2663  -0.8974  -0.7810  -0.6788  -0.5571  -0.5420
 -0.4931  -0.4400  -0.4376  -0.4343  -0.3565

                    Cartesian Multipole Moments
 -----------------------------------------------------------------
    Charge (ESU x 10^10)
                -0.0000
    Dipole Moment (Debye)
         X       0.0000      Y      -0.0199      Z      -0.1067
       Tot       0.1085
    Quadrupole Moments (Debye-Ang)
        XX     -21.7257     XY      -0.0000     YY     -21.3997
        XZ      -0.0000     YZ      -1.2770     ZZ     -22.5395

 Total job time:  27.83s(wall), 75.44s(cpu)
        *  Thank you very much for using Q-Chem.  Have a nice day.  *
