 Q-Chem 5.3 (devel), Q-Chem, Inc., Pleasanton, CA (2020)
 Q-Chem 5.3.0 for Intel X86 EM64T Linux

User input:
--------------------------------------------------------------
$rem
   JOBTYPE  sp
   EXCHANGE   omegaB97X-D
   BASIS   6-311+G(2df,2pd)
   UNRESTRICTED   False
   max_scf_cycles   250
   geom_opt_max_cycles   1500
   basis2 6-31G*
   scf_algorithm rca_diis
   SYM_IGNORE  TRUE
   print_input   true
   geom_opt_dmax   80
   pop_mulliken false
   XC_GRID 000075000302
$end

$molecule
0 1
C       1.1528380614     0.0059847657     0.2506079900
C       -0.0125010913     0.0058427675     -0.5781369857
H       1.3916164169     -0.7829104445     0.9741210648
H       1.4576493644     0.8421841237     0.8920628254
H       2.1537405076     -0.0367404279     -0.1948753560
C       -1.3765107830     -0.0081380940     0.2922593513
H       -0.1825020490     -0.8624033451     -1.2192337462
H       -0.2005756361     0.8802459959     -1.2056747721
H       -1.1522445359     -0.9461001756     0.7937450362
H       -2.1040477188     0.0102211825     -0.5118436198
H       -1.1274625968     0.8918143178     0.8480132309
$end
--------------------------------------------------------------

             Standard Nuclear Orientation (Angstroms)
    I     Atom           X                Y                Z
 ----------------------------------------------------------------
    1      C       1.1528380614     0.0059847657     0.2506079900
    2      C      -0.0125010913     0.0058427675    -0.5781369857
    3      H       1.3916164169    -0.7829104445     0.9741210648
    4      H       1.4576493644     0.8421841237     0.8920628254
    5      H       2.1537405076    -0.0367404279    -0.1948753560
    6      C      -1.3765107830    -0.0081380940     0.2922593513
    7      H      -0.1825020490    -0.8624033451    -1.2192337462
    8      H      -0.2005756361     0.8802459959    -1.2056747721
    9      H      -1.1522445359    -0.9461001756     0.7937450362
   10      H      -2.1040477188     0.0102211825    -0.5118436198
   11      H      -1.1274625968     0.8918143178     0.8480132309
 ----------------------------------------------------------------

    7    -119.0467804729      6.57E-06 Convergence criterion met
    6    -119.0929497606      5.53E-06 Convergence criterion met
 Total energy in the final basis set = -119.09294976

                    Orbital Energies (a.u.)
 --------------------------------------------------------------

 Alpha MOs
 -- Occupied --
-10.2764 -10.2679 -10.2658  -0.8915  -0.7856  -0.6800  -0.5533  -0.5498
 -0.4713  -0.4623  -0.4539  -0.4034  -0.3644

                    Cartesian Multipole Moments
 -----------------------------------------------------------------
    Charge (ESU x 10^10)
                 0.0000
    Dipole Moment (Debye)
         X       0.3621      Y       0.0051      Z      -0.1963
       Tot       0.4119
    Quadrupole Moments (Debye-Ang)
        XX     -22.3771     XY       0.0311     YY     -21.4899
        XZ       2.0277     YZ       0.0008     ZZ     -22.2564

 Total job time:  28.37s(wall), 76.61s(cpu)
        *  Thank you very much for using Q-Chem.  Have a nice day.  *
