 Q-Chem 5.3 (devel), Q-Chem, Inc., Pleasanton, CA (2020)
 Q-Chem 5.3.0 for Intel X86 EM64T Linux

User input:
--------------------------------------------------------------
$rem
   JOBTYPE  sp
   EXCHANGE   omegaB97X-D
   BASIS   6-311+G(2df,2pd)
   UNRESTRICTED   False
   max_scf_cycles   250
   geom_opt_max_cycles   1500
   basis2 6-31G*
   scf_algorithm rca_diis
   SYM_IGNORE  TRUE
   print_input   true
   geom_opt_dmax   80
   pop_mulliken false
   XC_GRID 000075000302
$end

$molecule
0 1
C       1.2893429846     -0.0363815444     0.2365386086
C       0.0153870391     0.0020675027     -0.5883281574
H       1.3127685489     -0.9158054840     0.8831430631
H       1.3025719193     0.6801997732     1.0655496419
H       2.1350311461     0.1723842163     -0.4137088004
C       -1.2434215345     0.0430366941     0.2802253549
H       -0.0486019400     -0.8711473665     -1.2419011883
H       0.0298800880     0.8748113392     -1.2454923343
H       -1.2950943447     -0.8369426706     0.9246508053
H       -2.1725486987     -0.1543682439     -0.2623882824
H       -1.3253152688     1.0421464499     0.7027563078
$end
--------------------------------------------------------------

             Standard Nuclear Orientation (Angstroms)
    I     Atom           X                Y                Z
 ----------------------------------------------------------------
    1      C       1.2893429846    -0.0363815444     0.2365386086
    2      C       0.0153870391     0.0020675027    -0.5883281574
    3      H       1.3127685489    -0.9158054840     0.8831430631
    4      H       1.3025719193     0.6801997732     1.0655496419
    5      H       2.1350311461     0.1723842163    -0.4137088004
    6      C      -1.2434215345     0.0430366941     0.2802253549
    7      H      -0.0486019400    -0.8711473665    -1.2419011883
    8      H       0.0298800880     0.8748113392    -1.2454923343
    9      H      -1.2950943447    -0.8369426706     0.9246508053
   10      H      -2.1725486987    -0.1543682439    -0.2623882824
   11      H      -1.3253152688     1.0421464499     0.7027563078
 ----------------------------------------------------------------

    7    -119.0884526196      5.32E-06 Convergence criterion met
    6    -119.1321432630      3.95E-06 Convergence criterion met
 Total energy in the final basis set = -119.13214326

                    Orbital Energies (a.u.)
 --------------------------------------------------------------

 Alpha MOs
 -- Occupied --
-10.2740 -10.2655 -10.2651  -0.8818  -0.7787  -0.6793  -0.5504  -0.5282
 -0.4835  -0.4633  -0.4228  -0.4081  -0.3988

                    Cartesian Multipole Moments
 -----------------------------------------------------------------
    Charge (ESU x 10^10)
                 0.0000
    Dipole Moment (Debye)
         X      -0.0809      Y      -0.0064      Z      -0.0709
       Tot       0.1077
    Quadrupole Moments (Debye-Ang)
        XX     -22.2268     XY       0.5144     YY     -21.3305
        XZ       0.0032     YZ      -0.2290     ZZ     -21.9010

 Total job time:  26.45s(wall), 72.11s(cpu)
        *  Thank you very much for using Q-Chem.  Have a nice day.  *
