 Q-Chem 5.2 (devel), Q-Chem, Inc., Pleasanton, CA (2019)
 Q-Chem 5.2.2 for Intel X86 EM64T Linux

User input:
--------------------------------------------------------------
$rem
   JOBTYPE  sp
   EXCHANGE   omegaB97X-D
   BASIS   6-311+G(2df,2pd)
   max_scf_cycles   250
   geom_opt_max_cycles   1500
   basis2 6-31G*
   scf_algorithm rca_diis
   SYM_IGNORE  TRUE
   print_input   true
   geom_opt_dmax   80
   pop_mulliken false
   XC_GRID 000075000302
$end

$molecule
0 1
C       1.2692065504     0.0000393723     0.2786451016
C       0.0000002827     -0.0001124053     -0.5373509530
H       1.3058579736     -0.8896111741     0.9318281516
H       1.3059297258     0.8890454446     0.9311760695
H       2.1323433724     0.0000590176     -0.3131793572
C       -1.2692058191     0.0000396407     0.2786447264
H       0.0000004142     -1.1030542334     -1.3886284808
H       0.0000002744     1.1041013305     -1.3899167064
H       -1.3058577017     -0.8896145501     0.9318305054
H       -2.1323457452     0.0000596894     -0.3131818073
H       -1.3059293879     0.8890485338     0.9311777693
--------------------------------------------------------------

             Standard Nuclear Orientation (Angstroms)
    I     Atom           X                Y                Z
 ----------------------------------------------------------------
    1      C       1.2692065504     0.0000393723     0.2786451016
    2      C       0.0000002827    -0.0001124053    -0.5373509530
    3      H       1.3058579736    -0.8896111741     0.9318281516
    4      H       1.3059297258     0.8890454446     0.9311760695
    5      H       2.1323433724     0.0000590176    -0.3131793572
    6      C      -1.2692058191     0.0000396407     0.2786447264
    7      H       0.0000004142    -1.1030542334    -1.3886284808
    8      H       0.0000002744     1.1041013305    -1.3899167064
    9      H      -1.3058577017    -0.8896145501     0.9318305054
   10      H      -2.1323457452     0.0000596894    -0.3131818073
   11      H      -1.3059293879     0.8890485338     0.9311777693
 ----------------------------------------------------------------

    7    -119.0369074230      5.43E-06 Convergence criterion met
    6    -119.0792311853      3.96E-06 Convergence criterion met
 Total energy in the final basis set = -119.07923119

                    Orbital Energies (a.u.)
 --------------------------------------------------------------

 Alpha MOs
 -- Occupied --
-10.3307 -10.2699 -10.2699  -0.8803  -0.7883  -0.6475  -0.5334  -0.5306
 -0.4890  -0.4667  -0.4372  -0.4021  -0.3726

                    Cartesian Multipole Moments
 -----------------------------------------------------------------
    Charge (ESU x 10^10)
                 0.0000
    Dipole Moment (Debye)
         X       0.0000      Y      -0.0012      Z       0.4316
       Tot       0.4316
    Quadrupole Moments (Debye-Ang)
        XX     -21.7193     XY      -0.0000     YY     -21.9123
        XZ       0.0000     YZ       0.0031     ZZ     -22.8768

 Total job time:  49.72s(wall), 138.87s(cpu)
        *  Thank you very much for using Q-Chem.  Have a nice day.  *
