 Q-Chem 5.3 (devel), Q-Chem, Inc., Pleasanton, CA (2020)
 Q-Chem 5.3.0 for Intel X86 EM64T Linux

User input:
--------------------------------------------------------------
$rem
   JOBTYPE  sp
   EXCHANGE   omegaB97X-D
   BASIS   6-311+G(2df,2pd)
   UNRESTRICTED   False
   max_scf_cycles   250
   geom_opt_max_cycles   1500
   basis2 6-31G*
   scf_algorithm rca_diis
   SYM_IGNORE  TRUE
   print_input   true
   geom_opt_dmax   80
   pop_mulliken false
   XC_GRID 000075000302
$end

$molecule
0 1
C       1.1504053678     0.0037283722     0.2600014255
C       0.0000000371     -0.0102473854     -0.7218687551
H       1.0753385542     -0.8815953513     0.8956145657
H       1.0388463956     0.8729378380     0.9120545828
H       2.1504246441     0.0264670569     -0.1707121562
C       -1.1504051850     0.0037285344     0.2600015689
H       -0.0000003438     -0.8978112893     -1.3568844383
H       0.0000000997     0.8649825257     -1.3741187688
H       -1.0753383722     -0.8815952005     0.8956146638
H       -2.1504244323     0.0264673707     -0.1707122953
H       -1.0388468260     0.8729381948     0.9120546259
$end
--------------------------------------------------------------

             Standard Nuclear Orientation (Angstroms)
    I     Atom           X                Y                Z
 ----------------------------------------------------------------
    1      C       1.1504053678     0.0037283722     0.2600014255
    2      C       0.0000000371    -0.0102473854    -0.7218687551
    3      H       1.0753385542    -0.8815953513     0.8956145657
    4      H       1.0388463956     0.8729378380     0.9120545828
    5      H       2.1504246441     0.0264670569    -0.1707121562
    6      C      -1.1504051850     0.0037285344     0.2600015689
    7      H      -0.0000003438    -0.8978112893    -1.3568844383
    8      H       0.0000000997     0.8649825257    -1.3741187688
    9      H      -1.0753383722    -0.8815952005     0.8956146638
   10      H      -2.1504244323     0.0264673707    -0.1707122953
   11      H      -1.0388468260     0.8729381948     0.9120546259
 ----------------------------------------------------------------

    7    -119.0924631517      5.13E-06 Convergence criterion met
    5    -119.1358526539      7.94E-06 Convergence criterion met
 Total energy in the final basis set = -119.13585265

                    Orbital Energies (a.u.)
 --------------------------------------------------------------

 Alpha MOs
 -- Occupied --
-10.2735 -10.2633 -10.2632  -0.8946  -0.7650  -0.6845  -0.5552  -0.5353
 -0.4683  -0.4509  -0.4332  -0.4160  -0.4064

                    Cartesian Multipole Moments
 -----------------------------------------------------------------
    Charge (ESU x 10^10)
                 0.0000
    Dipole Moment (Debye)
         X      -0.0000      Y      -0.0044      Z      -0.0485
       Tot       0.0487
    Quadrupole Moments (Debye-Ang)
        XX     -22.5071     XY      -0.0000     YY     -21.2682
        XZ      -0.0000     YZ       0.0077     ZZ     -21.8132

 Total job time:  26.53s(wall), 70.92s(cpu)
        *  Thank you very much for using Q-Chem.  Have a nice day.  *
