 Q-Chem 5.3 (devel), Q-Chem, Inc., Pleasanton, CA (2020)
 Q-Chem 5.3.0 for Intel X86 EM64T Linux

User input:
--------------------------------------------------------------
$rem
   JOBTYPE  sp
   EXCHANGE   omegaB97X-D
   BASIS   6-311+G(2df,2pd)
   UNRESTRICTED   False
   max_scf_cycles   250
   geom_opt_max_cycles   1500
   basis2 6-31G*
   scf_algorithm rca_diis
   SYM_IGNORE  TRUE
   print_input   true
   geom_opt_dmax   80
   pop_mulliken false
   XC_GRID 000075000302
$end

$molecule
0 1
C       1.2667735725     -0.0631791821     0.2614544655
C       0.0000014482     -0.0635534242     -0.5856694064
H       1.3051674733     -0.8224149389     0.8213293090
H       1.3031836842     0.9346772583     0.9851967412
H       2.1700329119     -0.0411841176     -0.3623407400
C       -1.2667637354     -0.0631802214     0.2614645414
H       0.0000001450     -0.8511580688     -1.1788816385
H       -0.0000003968     0.8989068502     -1.3056682660
H       -1.3051541119     -0.8223930177     0.8213245860
H       -2.1700655814     -0.0411877428     -0.3623558032
H       -1.3031754703     0.9346672710     0.9851912299
$end
--------------------------------------------------------------

             Standard Nuclear Orientation (Angstroms)
    I     Atom           X                Y                Z
 ----------------------------------------------------------------
    1      C       1.2667735725    -0.0631791821     0.2614544655
    2      C       0.0000014482    -0.0635534242    -0.5856694064
    3      H       1.3051674733    -0.8224149389     0.8213293090
    4      H       1.3031836842     0.9346772583     0.9851967412
    5      H       2.1700329119    -0.0411841176    -0.3623407400
    6      C      -1.2667637354    -0.0631802214     0.2614645414
    7      H       0.0000001450    -0.8511580688    -1.1788816385
    8      H      -0.0000003968     0.8989068502    -1.3056682660
    9      H      -1.3051541119    -0.8223930177     0.8213245860
   10      H      -2.1700655814    -0.0411877428    -0.3623558032
   11      H      -1.3031754703     0.9346672710     0.9851912299
 ----------------------------------------------------------------

    7    -119.0323961986      4.97E-06 Convergence criterion met
    5    -119.0781800207      9.83E-06 Convergence criterion met
 Total energy in the final basis set = -119.07818002

                    Orbital Energies (a.u.)
 --------------------------------------------------------------

 Alpha MOs
 -- Occupied --
-10.2748 -10.2640 -10.2639  -0.8868  -0.7848  -0.6872  -0.5491  -0.5250
 -0.5024  -0.4472  -0.4182  -0.4170  -0.4051

                    Cartesian Multipole Moments
 -----------------------------------------------------------------
    Charge (ESU x 10^10)
                -0.0000
    Dipole Moment (Debye)
         X       0.0000      Y      -0.4447      Z      -0.1129
       Tot       0.4589
    Quadrupole Moments (Debye-Ang)
        XX     -22.1566     XY      -0.0000     YY     -21.3167
        XZ      -0.0000     YZ       0.0079     ZZ     -21.9185

 Total job time:  23.94s(wall), 65.02s(cpu)
        *  Thank you very much for using Q-Chem.  Have a nice day.  *
