 Q-Chem 5.3 (devel), Q-Chem, Inc., Pleasanton, CA (2020)
 Q-Chem 5.3.0 for Intel X86 EM64T Linux

User input:
--------------------------------------------------------------
$rem
   JOBTYPE  sp
   EXCHANGE   omegaB97X-D
   BASIS   6-311+G(2df,2pd)
   UNRESTRICTED   False
   max_scf_cycles   250
   geom_opt_max_cycles   1500
   basis2 6-31G*
   scf_algorithm rca_diis
   SYM_IGNORE  TRUE
   print_input   true
   geom_opt_dmax   80
   pop_mulliken false
   XC_GRID 000075000302
$end

$molecule
0 1
C       1.2673476838     0.0210498084     0.2588936411
C       -0.0000004771     0.0211654088     -0.5876755684
H       1.3049109717     -0.9002371264     0.9311759115
H       1.3055936169     0.8627883722     0.8765608626
H       2.1627394469     0.0138040089     -0.3590992500
C       -1.2673508991     0.0210500429     0.2588903573
H       0.0000000277     -0.8815198453     -1.2642917259
H       -0.0000000608     0.8655464140     -1.2220550034
H       -1.3049153405     -0.9002446116     0.9311774443
H       -2.1627285564     0.0138063782     -0.3590941238
H       -1.3055964738     0.8627918157     0.8765624736
$end
--------------------------------------------------------------

             Standard Nuclear Orientation (Angstroms)
    I     Atom           X                Y                Z
 ----------------------------------------------------------------
    1      C       1.2673476838     0.0210498084     0.2588936411
    2      C      -0.0000004771     0.0211654088    -0.5876755684
    3      H       1.3049109717    -0.9002371264     0.9311759115
    4      H       1.3055936169     0.8627883722     0.8765608626
    5      H       2.1627394469     0.0138040089    -0.3590992500
    6      C      -1.2673508991     0.0210500429     0.2588903573
    7      H       0.0000000277    -0.8815198453    -1.2642917259
    8      H      -0.0000000608     0.8655464140    -1.2220550034
    9      H      -1.3049153405    -0.9002446116     0.9311774443
   10      H      -2.1627285564     0.0138063782    -0.3590941238
   11      H      -1.3055964738     0.8627918157     0.8765624736
 ----------------------------------------------------------------

    7    -119.0957519648      4.58E-06 Convergence criterion met
    6    -119.1389708219      3.86E-06 Convergence criterion met
 Total energy in the final basis set = -119.13897082

                    Orbital Energies (a.u.)
 --------------------------------------------------------------

 Alpha MOs
 -- Occupied --
-10.2739 -10.2649 -10.2649  -0.8818  -0.7781  -0.6788  -0.5460  -0.5248
 -0.4862  -0.4600  -0.4190  -0.4176  -0.4072

                    Cartesian Multipole Moments
 -----------------------------------------------------------------
    Charge (ESU x 10^10)
                -0.0000
    Dipole Moment (Debye)
         X      -0.0000      Y       0.1529      Z      -0.0944
       Tot       0.1798
    Quadrupole Moments (Debye-Ang)
        XX     -22.1551     XY      -0.0000     YY     -21.3556
        XZ       0.0000     YZ      -0.0020     ZZ     -21.8522

 Total job time:  26.78s(wall), 72.99s(cpu)
        *  Thank you very much for using Q-Chem.  Have a nice day.  *
