 Q-Chem 5.3 (devel), Q-Chem, Inc., Pleasanton, CA (2020)
 Q-Chem 5.3.0 for Intel X86 EM64T Linux

User input:
--------------------------------------------------------------
$rem
   JOBTYPE  sp
   EXCHANGE   omegaB97X-D
   BASIS   6-311+G(2df,2pd)
   UNRESTRICTED   False
   max_scf_cycles   250
   geom_opt_max_cycles   1500
   basis2 6-31G*
   scf_algorithm rca_diis
   SYM_IGNORE  TRUE
   print_input   true
   geom_opt_dmax   80
   pop_mulliken false
   XC_GRID 000075000302
$end

$molecule
0 1
C       1.3182912013     0.0052896985     0.2588341261
C       -0.0000000361     -0.0054021371     -0.6539345955
H       1.3141505600     -0.8791471545     0.9002594505
H       1.2950676458     0.8727447428     0.9222032094
H       2.2694123706     0.0183662665     -0.2755711983
C       -1.3182914316     0.0052894636     0.2588338481
H       0.0000004636     -0.8893103934     -1.2959689325
H       -0.0000000697     0.8602058776     -1.3205024751
H       -1.3141507494     -0.8791473826     0.9002591664
H       -2.2694129069     0.0183674483     -0.2755708652
H       -1.2950671081     0.8727442364     0.9222032851
$end
--------------------------------------------------------------

             Standard Nuclear Orientation (Angstroms)
    I     Atom           X                Y                Z
 ----------------------------------------------------------------
    1      C       1.3182912013     0.0052896985     0.2588341261
    2      C      -0.0000000361    -0.0054021371    -0.6539345955
    3      H       1.3141505600    -0.8791471545     0.9002594505
    4      H       1.2950676458     0.8727447428     0.9222032094
    5      H       2.2694123706     0.0183662665    -0.2755711983
    6      C      -1.3182914316     0.0052894636     0.2588338481
    7      H       0.0000004636    -0.8893103934    -1.2959689325
    8      H      -0.0000000697     0.8602058776    -1.3205024751
    9      H      -1.3141507494    -0.8791473826     0.9002591664
   10      H      -2.2694129069     0.0183674483    -0.2755708652
   11      H      -1.2950671081     0.8727442364     0.9222032851
 ----------------------------------------------------------------

    7    -119.0965306543      5.42E-06 Convergence criterion met
    5    -119.1389361514      9.82E-06 Convergence criterion met
 Total energy in the final basis set = -119.13893615

                    Orbital Energies (a.u.)
 --------------------------------------------------------------

 Alpha MOs
 -- Occupied --
-10.2873 -10.2719 -10.2719  -0.8616  -0.7723  -0.6849  -0.5348  -0.5171
 -0.4714  -0.4622  -0.4194  -0.4158  -0.4147

                    Cartesian Multipole Moments
 -----------------------------------------------------------------
    Charge (ESU x 10^10)
                 0.0000
    Dipole Moment (Debye)
         X       0.0000      Y      -0.0069      Z      -0.0290
       Tot       0.0298
    Quadrupole Moments (Debye-Ang)
        XX     -21.7718     XY      -0.0000     YY     -21.5234
        XZ      -0.0000     YZ       0.0143     ZZ     -21.9103

 Total job time:  24.49s(wall), 66.01s(cpu)
        *  Thank you very much for using Q-Chem.  Have a nice day.  *
