 Q-Chem 5.3 (devel), Q-Chem, Inc., Pleasanton, CA (2020)
 Q-Chem 5.3.0 for Intel X86 EM64T Linux

User input:
--------------------------------------------------------------
$rem
   JOBTYPE  sp
   EXCHANGE   omegaB97X-D
   BASIS   6-311+G(2df,2pd)
   UNRESTRICTED   False
   max_scf_cycles   250
   geom_opt_max_cycles   1500
   basis2 6-31G*
   scf_algorithm rca_diis
   SYM_IGNORE  TRUE
   print_input   true
   geom_opt_dmax   80
   pop_mulliken false
   XC_GRID 000075000302
$end

$molecule
0 1
C       1.2114781691     0.0027407922     0.2526781837
C       -0.0050669058     0.0014296845     -0.5849262628
H       1.3559552399     -0.8344347040     0.9424362970
H       1.3841094739     0.8646500569     0.9047468188
H       2.1667149784     -0.0152907904     -0.2791048426
C       -1.3216899641     -0.0033139109     0.2722686369
H       -0.0901137888     -0.8710019281     -1.2371430993
H       -0.0985538146     0.8755421652     -1.2337284449
H       -1.2377545017     -0.9196029546     0.8555601526
H       -2.1451012909     0.0086593015     -0.4380250756
H       -1.2199776560     0.8906229538     0.8862826551
$end
--------------------------------------------------------------

             Standard Nuclear Orientation (Angstroms)
    I     Atom           X                Y                Z
 ----------------------------------------------------------------
    1      C       1.2114781691     0.0027407922     0.2526781837
    2      C      -0.0050669058     0.0014296845    -0.5849262628
    3      H       1.3559552399    -0.8344347040     0.9424362970
    4      H       1.3841094739     0.8646500569     0.9047468188
    5      H       2.1667149784    -0.0152907904    -0.2791048426
    6      C      -1.3216899641    -0.0033139109     0.2722686369
    7      H      -0.0901137888    -0.8710019281    -1.2371430993
    8      H      -0.0985538146     0.8755421652    -1.2337284449
    9      H      -1.2377545017    -0.9196029546     0.8555601526
   10      H      -2.1451012909     0.0086593015    -0.4380250756
   11      H      -1.2199776560     0.8906229538     0.8862826551
 ----------------------------------------------------------------

    7    -119.0893350658      5.10E-06 Convergence criterion met
    6    -119.1330221046      4.71E-06 Convergence criterion met
 Total energy in the final basis set = -119.13302210

                    Orbital Energies (a.u.)
 --------------------------------------------------------------

 Alpha MOs
 -- Occupied --
-10.2744 -10.2665 -10.2646  -0.8835  -0.7791  -0.6782  -0.5476  -0.5321
 -0.4768  -0.4634  -0.4412  -0.4064  -0.3919

                    Cartesian Multipole Moments
 -----------------------------------------------------------------
    Charge (ESU x 10^10)
                 0.0000
    Dipole Moment (Debye)
         X       0.1345      Y       0.0011      Z      -0.1089
       Tot       0.1731
    Quadrupole Moments (Debye-Ang)
        XX     -22.2095     XY       0.0212     YY     -21.3918
        XZ       0.9941     YZ      -0.0000     ZZ     -21.9449

 Total job time:  27.90s(wall), 75.25s(cpu)
        *  Thank you very much for using Q-Chem.  Have a nice day.  *
