 Q-Chem 5.3 (devel), Q-Chem, Inc., Pleasanton, CA (2020)
 Q-Chem 5.3.0 for Intel X86 EM64T Linux

User input:
--------------------------------------------------------------
$rem
   JOBTYPE  sp
   EXCHANGE   omegaB97X-D
   BASIS   6-311+G(2df,2pd)
   UNRESTRICTED   False
   max_scf_cycles   250
   geom_opt_max_cycles   1500
   basis2 6-31G*
   scf_algorithm rca_diis
   SYM_IGNORE  TRUE
   print_input   true
   geom_opt_dmax   80
   pop_mulliken false
   XC_GRID 000075000302
$end

$molecule
0 1
C       1.2489410144     0.0911066448     0.2638411568
C       -0.0000002329     -0.0748927811     -0.6362711701
H       1.0230700923     -0.7406160664     0.9420404870
H       1.5869751858     0.9004453760     0.9057529986
H       2.0515327756     -0.3235155079     -0.3480953229
C       -1.2489415586     0.0911066645     0.2638409977
H       -0.0000009956     -0.7246317503     -1.5143141012
H       0.0000012513     0.9446851334     -1.0354481921
H       -1.0230704632     -0.7406161017     0.9420401842
H       -2.0515329118     -0.3235164055     -0.3480953600
H       -1.5869742179     0.9004454604     0.9057533410
$end
--------------------------------------------------------------

             Standard Nuclear Orientation (Angstroms)
    I     Atom           X                Y                Z
 ----------------------------------------------------------------
    1      C       1.2489410144     0.0911066448     0.2638411568
    2      C      -0.0000002329    -0.0748927811    -0.6362711701
    3      H       1.0230700923    -0.7406160664     0.9420404870
    4      H       1.5869751858     0.9004453760     0.9057529986
    5      H       2.0515327756    -0.3235155079    -0.3480953229
    6      C      -1.2489415586     0.0911066645     0.2638409977
    7      H      -0.0000009956    -0.7246317503    -1.5143141012
    8      H       0.0000012513     0.9446851334    -1.0354481921
    9      H      -1.0230704632    -0.7406161017     0.9420401842
   10      H      -2.0515329118    -0.3235164055    -0.3480953600
   11      H      -1.5869742179     0.9004454604     0.9057533410
 ----------------------------------------------------------------

    7    -119.0370340116      5.84E-06 Convergence criterion met
    5    -119.0821998657      9.38E-06 Convergence criterion met
 Total energy in the final basis set = -119.08219987

                    Orbital Energies (a.u.)
 --------------------------------------------------------------

 Alpha MOs
 -- Occupied --
-10.2829 -10.2666 -10.2666  -0.8852  -0.7758  -0.6840  -0.5438  -0.5283
 -0.5059  -0.4571  -0.4384  -0.3946  -0.3622

                    Cartesian Multipole Moments
 -----------------------------------------------------------------
    Charge (ESU x 10^10)
                -0.0000
    Dipole Moment (Debye)
         X       0.0000      Y       0.0232      Z      -0.1464
       Tot       0.1483
    Quadrupole Moments (Debye-Ang)
        XX     -22.6877     XY       0.0000     YY     -21.6254
        XZ       0.0000     YZ       1.5011     ZZ     -21.4677

 Total job time:  25.77s(wall), 69.36s(cpu)
        *  Thank you very much for using Q-Chem.  Have a nice day.  *
