 Q-Chem 5.2 (devel), Q-Chem, Inc., Pleasanton, CA (2019)
 Q-Chem 5.2.2 for Intel X86 EM64T Linux

User input:
--------------------------------------------------------------
$rem
   JOBTYPE  sp
   EXCHANGE   omegaB97X-D
   BASIS   6-311+G(2df,2pd)
   max_scf_cycles   250
   geom_opt_max_cycles   1500
   basis2 6-31G*
   scf_algorithm rca_diis
   SYM_IGNORE  TRUE
   print_input   true
   geom_opt_dmax   80
   pop_mulliken false
   XC_GRID 000075000302
$end

$molecule
0 1
C       1.2669032635     0.0271463119     0.2601683731
C       0.0012108494     -0.0000906718     -0.5873772155
H       1.2987598488     -0.8702049417     0.8816281917
H       1.3117000542     0.8935322032     0.9227121275
H       2.1650372794     0.0096603854     -0.3581540839
C       -1.2668357743     -0.0272548041     0.2586187255
H       -0.0869740851     -0.8705200026     -1.2418488802
H       0.0834098445     0.8707786034     -1.2420426961
H       -1.3115093172     -0.8907565621     0.9251419770
H       -2.1633206574     -0.0097962138     -0.3618502390
H       -1.2983813665     0.8675063583     0.8840487389
--------------------------------------------------------------

             Standard Nuclear Orientation (Angstroms)
    I     Atom           X                Y                Z
 ----------------------------------------------------------------
    1      C       1.2669032635     0.0271463119     0.2601683731
    2      C       0.0012108494    -0.0000906718    -0.5873772155
    3      H       1.2987598488    -0.8702049417     0.8816281917
    4      H       1.3117000542     0.8935322032     0.9227121275
    5      H       2.1650372794     0.0096603854    -0.3581540839
    6      C      -1.2668357743    -0.0272548041     0.2586187255
    7      H      -0.0869740851    -0.8705200026    -1.2418488802
    8      H       0.0834098445     0.8707786034    -1.2420426961
    9      H      -1.3115093172    -0.8907565621     0.9251419770
   10      H      -2.1633206574    -0.0097962138    -0.3618502390
   11      H      -1.2983813665     0.8675063583     0.8840487389
 ----------------------------------------------------------------

    7    -119.1000245289      4.63E-06 Convergence criterion met
    6    -119.1430497131      3.90E-06 Convergence criterion met
 Total energy in the final basis set = -119.14304971

                    Orbital Energies (a.u.)
 --------------------------------------------------------------

 Alpha MOs
 -- Occupied --
-10.2740 -10.2653 -10.2652  -0.8815  -0.7775  -0.6777  -0.5461  -0.5244
 -0.4843  -0.4643  -0.4225  -0.4167  -0.4012

                    Cartesian Multipole Moments
 -----------------------------------------------------------------
    Charge (ESU x 10^10)
                 0.0000
    Dipole Moment (Debye)
         X       0.0020      Y       0.0003      Z      -0.0810
       Tot       0.0810
    Quadrupole Moments (Debye-Ang)
        XX     -22.1518     XY       0.2410     YY     -21.3797
        XZ       0.0087     YZ      -0.0002     ZZ     -21.8571

 Total job time:  47.73s(wall), 132.93s(cpu)
        *  Thank you very much for using Q-Chem.  Have a nice day.  *
