 Q-Chem 5.3 (devel), Q-Chem, Inc., Pleasanton, CA (2020)
 Q-Chem 5.3.0 for Intel X86 EM64T Linux

User input:
--------------------------------------------------------------
$rem
   JOBTYPE  sp
   EXCHANGE   omegaB97X-D
   BASIS   6-311+G(2df,2pd)
   UNRESTRICTED   False
   max_scf_cycles   250
   geom_opt_max_cycles   1500
   basis2 6-31G*
   scf_algorithm rca_diis
   SYM_IGNORE  TRUE
   print_input   true
   geom_opt_dmax   80
   pop_mulliken false
   XC_GRID 000075000302
$end

$molecule
0 1
C       1.2703946327     0.0287375132     0.2330510219
C       0.0000000118     0.0266204662     -0.6264203216
H       1.3656682841     -0.8296771703     0.9063879104
H       1.2193538987     0.8534751975     0.9451738018
H       2.1405699220     -0.0874499919     -0.4114294717
C       -1.2703947648     0.0287379686     0.2330509426
H       -0.0000004287     -0.9119253159     -1.1800012837
H       0.0000001061     0.9551341196     -1.1988994863
H       -1.3656691797     -0.8296765604     0.9063880042
H       -2.1405698058     -0.0874514700     -0.4114294080
H       -1.2193527370     0.8534759095     0.9451733095
$end
--------------------------------------------------------------

             Standard Nuclear Orientation (Angstroms)
    I     Atom           X                Y                Z
 ----------------------------------------------------------------
    1      C       1.2703946327     0.0287375132     0.2330510219
    2      C       0.0000000118     0.0266204662    -0.6264203216
    3      H       1.3656682841    -0.8296771703     0.9063879104
    4      H       1.2193538987     0.8534751975     0.9451738018
    5      H       2.1405699220    -0.0874499919    -0.4114294717
    6      C      -1.2703947648     0.0287379686     0.2330509426
    7      H      -0.0000004287    -0.9119253159    -1.1800012837
    8      H       0.0000001061     0.9551341196    -1.1988994863
    9      H      -1.3656691797    -0.8296765604     0.9063880042
   10      H      -2.1405698058    -0.0874514700    -0.4114294080
   11      H      -1.2193527370     0.8534759095     0.9451733095
 ----------------------------------------------------------------

    7    -119.0888738342      5.31E-06 Convergence criterion met
    5    -119.1323971835      9.48E-06 Convergence criterion met
 Total energy in the final basis set = -119.13239718

                    Orbital Energies (a.u.)
 --------------------------------------------------------------

 Alpha MOs
 -- Occupied --
-10.2761 -10.2648 -10.2648  -0.8811  -0.7767  -0.6767  -0.5556  -0.5187
 -0.4961  -0.4576  -0.4151  -0.4088  -0.4051

                    Cartesian Multipole Moments
 -----------------------------------------------------------------
    Charge (ESU x 10^10)
                -0.0000
    Dipole Moment (Debye)
         X       0.0000      Y      -0.1414      Z      -0.0013
       Tot       0.1414
    Quadrupole Moments (Debye-Ang)
        XX     -22.5124     XY       0.0000     YY     -21.4722
        XZ       0.0000     YZ       0.2258     ZZ     -21.7378

 Total job time:  24.98s(wall), 67.29s(cpu)
        *  Thank you very much for using Q-Chem.  Have a nice day.  *
