 Q-Chem 5.3 (devel), Q-Chem, Inc., Pleasanton, CA (2020)
 Q-Chem 5.3.0 for Intel X86 EM64T Linux

User input:
--------------------------------------------------------------
$rem
   JOBTYPE  sp
   EXCHANGE   omegaB97X-D
   BASIS   6-311+G(2df,2pd)
   UNRESTRICTED   False
   max_scf_cycles   250
   geom_opt_max_cycles   1500
   basis2 6-31G*
   scf_algorithm rca_diis
   SYM_IGNORE  TRUE
   print_input   true
   geom_opt_dmax   80
   pop_mulliken false
   XC_GRID 000075000302
$end

$molecule
0 1
C       1.3023764609     -0.0029351238     0.2852994840
C       -0.0532617955     0.0001278208     -0.5871336683
H       1.3442471395     -0.8862988118     0.9275244712
H       1.3323736537     0.8673762789     0.9458104713
H       2.2116237254     0.0088586469     -0.3166414698
C       -1.2328021018     0.0030221445     0.2318441114
H       -0.1228909253     -0.8734704197     -1.2396170782
H       -0.1179939131     0.8738886847     -1.2399034522
H       -1.2663605856     -0.8748306911     0.8784225586
H       -2.1182703831     -0.0093736890     -0.4044219455
H       -1.2790413357     0.8936358255     0.8598615362
$end
--------------------------------------------------------------

             Standard Nuclear Orientation (Angstroms)
    I     Atom           X                Y                Z
 ----------------------------------------------------------------
    1      C       1.3023764609    -0.0029351238     0.2852994840
    2      C      -0.0532617955     0.0001278208    -0.5871336683
    3      H       1.3442471395    -0.8862988118     0.9275244712
    4      H       1.3323736537     0.8673762789     0.9458104713
    5      H       2.2116237254     0.0088586469    -0.3166414698
    6      C      -1.2328021018     0.0030221445     0.2318441114
    7      H      -0.1228909253    -0.8734704197    -1.2396170782
    8      H      -0.1179939131     0.8738886847    -1.2399034522
    9      H      -1.2663605856    -0.8748306911     0.8784225586
   10      H      -2.1182703831    -0.0093736890    -0.4044219455
   11      H      -1.2790413357     0.8936358255     0.8598615362
 ----------------------------------------------------------------

    7    -119.0927963775      4.84E-06 Convergence criterion met
    6    -119.1361449108      4.28E-06 Convergence criterion met
 Total energy in the final basis set = -119.13614491

                    Orbital Energies (a.u.)
 --------------------------------------------------------------

 Alpha MOs
 -- Occupied --
-10.2736 -10.2715 -10.2583  -0.8870  -0.7765  -0.6759  -0.5488  -0.5267
 -0.4820  -0.4639  -0.4308  -0.4053  -0.4044

                    Cartesian Multipole Moments
 -----------------------------------------------------------------
    Charge (ESU x 10^10)
                -0.0000
    Dipole Moment (Debye)
         X      -0.0532      Y      -0.0001      Z      -0.0825
       Tot       0.0981
    Quadrupole Moments (Debye-Ang)
        XX     -22.1324     XY      -0.0018     YY     -21.3581
        XZ       0.4183     YZ      -0.0012     ZZ     -21.8610

 Total job time:  28.60s(wall), 76.61s(cpu)
        *  Thank you very much for using Q-Chem.  Have a nice day.  *
