 Q-Chem 5.2 (devel), Q-Chem, Inc., Pleasanton, CA (2019)
 Q-Chem 5.2.2 for Intel X86 EM64T Linux

User input:
--------------------------------------------------------------
$rem
   JOBTYPE  sp
   EXCHANGE   omegaB97X-D
   BASIS   6-311+G(2df,2pd)
   max_scf_cycles   250
   geom_opt_max_cycles   1500
   basis2 6-31G*
   scf_algorithm rca_diis
   SYM_IGNORE  TRUE
   print_input   true
   geom_opt_dmax   80
   pop_mulliken false
   XC_GRID 000075000302
$end

$molecule
0 1
C       1.1860739681     -0.0011592252     0.2488069298
C       -0.0087635570     0.0002438082     -0.5788448461
H       1.3924056594     -0.8305420445     0.9341709937
H       1.4033760959     0.8284581699     0.9309051682
H       2.1661959520     0.0054416769     -0.2392064737
C       -1.3524463074     0.0021561185     0.2797963226
H       -0.1397240466     -0.8670394823     -1.2303245230
H       -0.1438522737     0.8667904665     -1.2304618043
H       -1.1907803169     -0.9103340764     0.8502615424
H       -2.1316640273     -0.0050642827     -0.4766509684
H       -1.1808212071     0.9110495370     0.8525926777
--------------------------------------------------------------

             Standard Nuclear Orientation (Angstroms)
    I     Atom           X                Y                Z
 ----------------------------------------------------------------
    1      C       1.1860739681    -0.0011592252     0.2488069298
    2      C      -0.0087635570     0.0002438082    -0.5788448461
    3      H       1.3924056594    -0.8305420445     0.9341709937
    4      H       1.4033760959     0.8284581699     0.9309051682
    5      H       2.1661959520     0.0054416769    -0.2392064737
    6      C      -1.3524463074     0.0021561185     0.2797963226
    7      H      -0.1397240466    -0.8670394823    -1.2303245230
    8      H      -0.1438522737     0.8667904665    -1.2304618043
    9      H      -1.1907803169    -0.9103340764     0.8502615424
   10      H      -2.1316640273    -0.0050642827    -0.4766509684
   11      H      -1.1808212071     0.9110495370     0.8525926777
 ----------------------------------------------------------------

    7    -119.0719039631      5.63E-06 Convergence criterion met
    6    -119.1165942822      5.18E-06 Convergence criterion met
 Total energy in the final basis set = -119.11659428

                    Orbital Energies (a.u.)
 --------------------------------------------------------------

 Alpha MOs
 -- Occupied --
-10.2750 -10.2676 -10.2651  -0.8865  -0.7819  -0.6793  -0.5486  -0.5408
 -0.4731  -0.4622  -0.4512  -0.4037  -0.3790

                    Cartesian Multipole Moments
 -----------------------------------------------------------------
    Charge (ESU x 10^10)
                 0.0000
    Dipole Moment (Debye)
         X       0.2276      Y       0.0007      Z      -0.1387
       Tot       0.2665
    Quadrupole Moments (Debye-Ang)
        XX     -22.2390     XY       0.0420     YY     -21.4926
        XZ       1.5086     YZ      -0.0014     ZZ     -22.0294

 Total job time:  48.73s(wall), 136.14s(cpu)
        *  Thank you very much for using Q-Chem.  Have a nice day.  *
