 Q-Chem 5.3 (devel), Q-Chem, Inc., Pleasanton, CA (2020)
 Q-Chem 5.3.0 for Intel X86 EM64T Linux

User input:
--------------------------------------------------------------
$rem
   JOBTYPE  sp
   EXCHANGE   omegaB97X-D
   BASIS   6-311+G(2df,2pd)
   UNRESTRICTED   False
   max_scf_cycles   250
   geom_opt_max_cycles   1500
   basis2 6-31G*
   scf_algorithm rca_diis
   SYM_IGNORE  TRUE
   print_input   true
   geom_opt_dmax   80
   pop_mulliken false
   XC_GRID 000075000302
$end

$molecule
0 1
C       1.2759612959     0.0407220150     0.1711628881
C       -0.0000000905     -0.0379353424     -0.5251104313
H       1.1108259572     -0.8343355745     0.8102207934
H       1.1605098386     0.8618625250     0.8822685775
H       2.2764988935     -0.0279666728     -0.2430015645
C       -1.2759612132     0.0407220459     0.1711627518
H       0.0000003991     -0.8877580771     -1.2081625898
H       -0.0000002829     0.8451285844     -1.1669832119
H       -1.1108261259     -0.8343355187     0.8102207681
H       -2.2764990753     -0.0279660019     -0.2430013034
H       -1.1605096572     0.8618626833     0.8822683408
$end
--------------------------------------------------------------

             Standard Nuclear Orientation (Angstroms)
    I     Atom           X                Y                Z
 ----------------------------------------------------------------
    1      C       1.2759612959     0.0407220150     0.1711628881
    2      C      -0.0000000905    -0.0379353424    -0.5251104313
    3      H       1.1108259572    -0.8343355745     0.8102207934
    4      H       1.1605098386     0.8618625250     0.8822685775
    5      H       2.2764988935    -0.0279666728    -0.2430015645
    6      C      -1.2759612132     0.0407220459     0.1711627518
    7      H       0.0000003991    -0.8877580771    -1.2081625898
    8      H      -0.0000002829     0.8451285844    -1.1669832119
    9      H      -1.1108261259    -0.8343355187     0.8102207681
   10      H      -2.2764990753    -0.0279660019    -0.2430013034
   11      H      -1.1605096572     0.8618626833     0.8822683408
 ----------------------------------------------------------------

    7    -119.0564563141      5.04E-06 Convergence criterion met
    6    -119.1018696510      4.21E-06 Convergence criterion met
 Total energy in the final basis set = -119.10186965

                    Orbital Energies (a.u.)
 --------------------------------------------------------------

 Alpha MOs
 -- Occupied --
-10.2660 -10.2658 -10.2655  -0.9091  -0.7901  -0.6735  -0.5625  -0.5522
 -0.4791  -0.4743  -0.4494  -0.4026  -0.3671

                    Cartesian Multipole Moments
 -----------------------------------------------------------------
    Charge (ESU x 10^10)
                 0.0000
    Dipole Moment (Debye)
         X      -0.0000      Y      -0.0488      Z      -0.0435
       Tot       0.0654
    Quadrupole Moments (Debye-Ang)
        XX     -20.8310     XY      -0.0000     YY     -21.8235
        XZ      -0.0000     YZ       0.4833     ZZ     -22.9125

 Total job time:  28.99s(wall), 77.94s(cpu)
        *  Thank you very much for using Q-Chem.  Have a nice day.  *
