 Q-Chem 5.3 (devel), Q-Chem, Inc., Pleasanton, CA (2020)
 Q-Chem 5.3.0 for Intel X86 EM64T Linux

User input:
--------------------------------------------------------------
$rem
   JOBTYPE  sp
   EXCHANGE   omegaB97X-D
   BASIS   6-311+G(2df,2pd)
   UNRESTRICTED   False
   max_scf_cycles   250
   geom_opt_max_cycles   1500
   basis2 6-31G*
   scf_algorithm rca_diis
   SYM_IGNORE  TRUE
   print_input   true
   geom_opt_dmax   80
   pop_mulliken false
   XC_GRID 000075000302
$end

$molecule
0 1
C       1.2214382157     0.0010162612     0.1767869022
C       -0.0000005940     -0.0022399980     -0.6323640010
H       1.4787883483     -0.7818872705     0.9012073703
H       1.4638915189     0.7796891464     0.9107082646
H       2.2418492290     0.0084770307     -0.2230367500
C       -1.2214395112     0.0010159594     0.1767872582
H       0.0000005357     -0.8834980945     -1.2735799623
H       -0.0000007776     0.8711487083     -1.2843429960
H       -1.4787873046     -0.7818887333     0.9012072009
H       -2.2418490259     0.0084807381     -0.2230395013
H       -1.4638906949     0.7796869183     0.9107112334
$end
--------------------------------------------------------------

             Standard Nuclear Orientation (Angstroms)
    I     Atom           X                Y                Z
 ----------------------------------------------------------------
    1      C       1.2214382157     0.0010162612     0.1767869022
    2      C      -0.0000005940    -0.0022399980    -0.6323640010
    3      H       1.4787883483    -0.7818872705     0.9012073703
    4      H       1.4638915189     0.7796891464     0.9107082646
    5      H       2.2418492290     0.0084770307    -0.2230367500
    6      C      -1.2214395112     0.0010159594     0.1767872582
    7      H       0.0000005357    -0.8834980945    -1.2735799623
    8      H      -0.0000007776     0.8711487083    -1.2843429960
    9      H      -1.4787873046    -0.7818887333     0.9012072009
   10      H      -2.2418490259     0.0084807381    -0.2230395013
   11      H      -1.4638906949     0.7796869183     0.9107112334
 ----------------------------------------------------------------

    7    -119.0520933519      5.05E-06 Convergence criterion met
    6    -119.0985300441      4.16E-06 Convergence criterion met
 Total energy in the final basis set = -119.09853004

                    Orbital Energies (a.u.)
 --------------------------------------------------------------

 Alpha MOs
 -- Occupied --
-10.2836 -10.2636 -10.2636  -0.8957  -0.7905  -0.7068  -0.5420  -0.5323
 -0.5115  -0.4347  -0.4167  -0.4162  -0.3917

                    Cartesian Multipole Moments
 -----------------------------------------------------------------
    Charge (ESU x 10^10)
                -0.0000
    Dipole Moment (Debye)
         X       0.0000      Y      -0.0034      Z       0.0498
       Tot       0.0499
    Quadrupole Moments (Debye-Ang)
        XX     -20.6734     XY      -0.0000     YY     -22.2570
        XZ       0.0000     YZ       0.0052     ZZ     -21.6494

 Total job time:  27.45s(wall), 74.64s(cpu)
        *  Thank you very much for using Q-Chem.  Have a nice day.  *
