 Q-Chem 5.3 (devel), Q-Chem, Inc., Pleasanton, CA (2020)
 Q-Chem 5.3.0 for Intel X86 EM64T Linux

User input:
--------------------------------------------------------------
$rem
   JOBTYPE  sp
   EXCHANGE   omegaB97X-D
   BASIS   6-311+G(2df,2pd)
   UNRESTRICTED   False
   max_scf_cycles   250
   geom_opt_max_cycles   1500
   basis2 6-31G*
   scf_algorithm rca_diis
   SYM_IGNORE  TRUE
   print_input   true
   geom_opt_dmax   80
   pop_mulliken false
   XC_GRID 000075000302
$end

$molecule
0 1
C       1.2671287295     -0.0016411824     0.2590130623
C       -0.0000000342     0.0206899839     -0.5874236835
H       1.3167484023     -0.8519853060     0.8562711423
H       1.2918717156     0.9069523477     0.9518638109
H       2.1650841815     0.0309748836     -0.3601437472
C       -1.2671288538     -0.0016408831     0.2590130486
H       -0.0000000976     -0.9696571119     -1.3177152804
H       -0.0000000333     0.7803661172     -1.1678245517
H       -1.3167486737     -0.8519857110     0.8562715615
H       -2.1650837117     0.0309758735     -0.3601433874
H       -1.2918716853     0.9069516547     0.9518630436
$end
--------------------------------------------------------------

             Standard Nuclear Orientation (Angstroms)
    I     Atom           X                Y                Z
 ----------------------------------------------------------------
    1      C       1.2671287295    -0.0016411824     0.2590130623
    2      C      -0.0000000342     0.0206899839    -0.5874236835
    3      H       1.3167484023    -0.8519853060     0.8562711423
    4      H       1.2918717156     0.9069523477     0.9518638109
    5      H       2.1650841815     0.0309748836    -0.3601437472
    6      C      -1.2671288538    -0.0016408831     0.2590130486
    7      H      -0.0000000976    -0.9696571119    -1.3177152804
    8      H      -0.0000000333     0.7803661172    -1.1678245517
    9      H      -1.3167486737    -0.8519857110     0.8562715615
   10      H      -2.1650837117     0.0309758735    -0.3601433874
   11      H      -1.2918716853     0.9069516547     0.9518630436
 ----------------------------------------------------------------

    7    -119.0728433708      5.17E-06 Convergence criterion met
    6    -119.1169952112      4.04E-06 Convergence criterion met
 Total energy in the final basis set = -119.11699521

                    Orbital Energies (a.u.)
 --------------------------------------------------------------

 Alpha MOs
 -- Occupied --
-10.2731 -10.2655 -10.2655  -0.8840  -0.7785  -0.6860  -0.5450  -0.5231
 -0.4880  -0.4596  -0.4313  -0.4194  -0.3954

                    Cartesian Multipole Moments
 -----------------------------------------------------------------
    Charge (ESU x 10^10)
                -0.0000
    Dipole Moment (Debye)
         X      -0.0000      Y       0.0457      Z      -0.0481
       Tot       0.0663
    Quadrupole Moments (Debye-Ang)
        XX     -22.1148     XY      -0.0000     YY     -21.3866
        XZ      -0.0000     YZ      -0.2633     ZZ     -21.9169

 Total job time:  26.76s(wall), 72.86s(cpu)
        *  Thank you very much for using Q-Chem.  Have a nice day.  *
