 Q-Chem 5.3 (devel), Q-Chem, Inc., Pleasanton, CA (2020)
 Q-Chem 5.3.0 for Intel X86 EM64T Linux

User input:
--------------------------------------------------------------
$rem
   JOBTYPE  sp
   EXCHANGE   omegaB97X-D
   BASIS   6-311+G(2df,2pd)
   UNRESTRICTED   False
   max_scf_cycles   250
   geom_opt_max_cycles   1500
   basis2 6-31G*
   scf_algorithm rca_diis
   SYM_IGNORE  TRUE
   print_input   true
   geom_opt_dmax   80
   pop_mulliken false
   XC_GRID 000075000302
$end

$molecule
0 1
C       1.2673734497     0.1191866793     0.2576938018
C       0.0048066989     -0.0042510448     -0.5829846801
H       1.2650841665     -0.7996628607     0.8484985028
H       1.3439245158     0.9658770487     0.9411498595
H       2.1653012489     0.0102969036     -0.3518913922
C       -1.2681845297     -0.1185270770     0.2511811841
H       -0.3353479023     -0.8185929507     -1.2271110846
H       0.3225399645     0.8097007309     -1.2389456094
H       -1.3552023104     -0.9573851991     0.9438256165
H       -2.1582043285     0.0078945276     -0.3655861773
H       -1.2520910339     0.7854639082     0.8652149980
$end
--------------------------------------------------------------

             Standard Nuclear Orientation (Angstroms)
    I     Atom           X                Y                Z
 ----------------------------------------------------------------
    1      C       1.2673734497     0.1191866793     0.2576938018
    2      C       0.0048066989    -0.0042510448    -0.5829846801
    3      H       1.2650841665    -0.7996628607     0.8484985028
    4      H       1.3439245158     0.9658770487     0.9411498595
    5      H       2.1653012489     0.0102969036    -0.3518913922
    6      C      -1.2681845297    -0.1185270770     0.2511811841
    7      H      -0.3353479023    -0.8185929507    -1.2271110846
    8      H       0.3225399645     0.8097007309    -1.2389456094
    9      H      -1.3552023104    -0.9573851991     0.9438256165
   10      H      -2.1582043285     0.0078945276    -0.3655861773
   11      H      -1.2520910339     0.7854639082     0.8652149980
 ----------------------------------------------------------------

    7    -119.0529613701      6.33E-06 Convergence criterion met
    6    -119.0976842350      4.51E-06 Convergence criterion met
 Total energy in the final basis set = -119.09768424

                    Orbital Energies (a.u.)
 --------------------------------------------------------------

 Alpha MOs
 -- Occupied --
-10.2733 -10.2685 -10.2684  -0.8866  -0.7839  -0.6781  -0.5498  -0.5279
 -0.5031  -0.4725  -0.4338  -0.4042  -0.3586

                    Cartesian Multipole Moments
 -----------------------------------------------------------------
    Charge (ESU x 10^10)
                -0.0000
    Dipole Moment (Debye)
         X       0.0014      Y       0.0036      Z      -0.0114
       Tot       0.0121
    Quadrupole Moments (Debye-Ang)
        XX     -21.8624     XY       0.8910     YY     -21.6635
        XZ       0.0238     YZ      -0.0130     ZZ     -22.0831

 Total job time:  27.31s(wall), 74.64s(cpu)
        *  Thank you very much for using Q-Chem.  Have a nice day.  *
