 Q-Chem 5.2 (devel), Q-Chem, Inc., Pleasanton, CA (2019)
 Q-Chem 5.2.2 for Intel X86 EM64T Linux

User input:
--------------------------------------------------------------
$rem
   JOBTYPE  sp
   EXCHANGE   omegaB97X-D
   BASIS   6-311+G(2df,2pd)
   max_scf_cycles   250
   geom_opt_max_cycles   1500
   basis2 6-31G*
   scf_algorithm rca_diis
   SYM_IGNORE  TRUE
   print_input   true
   geom_opt_dmax   80
   pop_mulliken false
   XC_GRID 000075000302
$end

$molecule
0 1
C       1.2441417759     0.0093394812     0.2822821274
C       -0.0153449074     -0.0011989578     -0.5861909628
H       1.3578778630     -0.9422648379     0.8055705107
H       1.2621670431     0.9470175053     0.8335484649
H       2.1806669708     -0.0536321677     -0.2795280578
C       -1.2898333660     -0.0130849306     0.2386639946
H       0.0289880242     -0.8739384281     -1.2420242366
H       -0.0102719323     0.8732407479     -1.2412377094
H       -1.2619419045     -0.8019478807     0.9929517738
H       -2.1427143429     0.0548897203     -0.4318331153
H       -1.3537352845     0.8015804140     0.9688422294
--------------------------------------------------------------

             Standard Nuclear Orientation (Angstroms)
    I     Atom           X                Y                Z
 ----------------------------------------------------------------
    1      C       1.2441417759     0.0093394812     0.2822821274
    2      C      -0.0153449074    -0.0011989578    -0.5861909628
    3      H       1.3578778630    -0.9422648379     0.8055705107
    4      H       1.2621670431     0.9470175053     0.8335484649
    5      H       2.1806669708    -0.0536321677    -0.2795280578
    6      C      -1.2898333660    -0.0130849306     0.2386639946
    7      H       0.0289880242    -0.8739384281    -1.2420242366
    8      H      -0.0102719323     0.8732407479    -1.2412377094
    9      H      -1.2619419045    -0.8019478807     0.9929517738
   10      H      -2.1427143429     0.0548897203    -0.4318331153
   11      H      -1.3537352845     0.8015804140     0.9688422294
 ----------------------------------------------------------------

    7    -119.0890181560      5.35E-06 Convergence criterion met
    6    -119.1326962898      3.92E-06 Convergence criterion met
 Total energy in the final basis set = -119.13269629

                    Orbital Energies (a.u.)
 --------------------------------------------------------------

 Alpha MOs
 -- Occupied --
-10.2741 -10.2656 -10.2652  -0.8818  -0.7788  -0.6793  -0.5489  -0.5304
 -0.4842  -0.4610  -0.4231  -0.4097  -0.3982

                    Cartesian Multipole Moments
 -----------------------------------------------------------------
    Charge (ESU x 10^10)
                 0.0000
    Dipole Moment (Debye)
         X       0.0821      Y       0.0076      Z      -0.0824
       Tot       0.1165
    Quadrupole Moments (Debye-Ang)
        XX     -22.1487     XY      -0.4908     YY     -21.4353
        XZ       0.0025     YZ       0.0139     ZZ     -21.8527

 Total job time:  48.61s(wall), 135.64s(cpu)
        *  Thank you very much for using Q-Chem.  Have a nice day.  *
