 Q-Chem 5.3 (devel), Q-Chem, Inc., Pleasanton, CA (2020)
 Q-Chem 5.3.0 for Intel X86 EM64T Linux

User input:
--------------------------------------------------------------
$rem
   JOBTYPE  sp
   EXCHANGE   omegaB97X-D
   BASIS   6-311+G(2df,2pd)
   UNRESTRICTED   False
   max_scf_cycles   250
   geom_opt_max_cycles   1500
   basis2 6-31G*
   scf_algorithm rca_diis
   SYM_IGNORE  TRUE
   print_input   true
   geom_opt_dmax   80
   pop_mulliken false
   XC_GRID 000075000302
$end

$molecule
0 1
C       1.2582873427     0.0721859346     0.2620788494
C       -0.0000000292     0.1346758302     -0.5919358323
H       1.1465682784     -0.8903810824     0.7695037369
H       1.4333037031     0.8355618345     1.0192898244
H       2.1486900856     -0.0318941172     -0.3595152006
C       -1.2582875248     0.0721859618     0.2620785961
H       -0.0000000596     -0.8890025988     -0.9826265175
H       0.0000001374     0.7833820716     -1.4671067868
H       -1.1465681729     -0.8903811491     0.7695033045
H       -2.1486904978     -0.0318933050     -0.3595152378
H       -1.4333033235     0.8355612857     1.0192902826
$end
--------------------------------------------------------------

             Standard Nuclear Orientation (Angstroms)
    I     Atom           X                Y                Z
 ----------------------------------------------------------------
    1      C       1.2582873427     0.0721859346     0.2620788494
    2      C      -0.0000000292     0.1346758302    -0.5919358323
    3      H       1.1465682784    -0.8903810824     0.7695037369
    4      H       1.4333037031     0.8355618345     1.0192898244
    5      H       2.1486900856    -0.0318941172    -0.3595152006
    6      C      -1.2582875248     0.0721859618     0.2620785961
    7      H      -0.0000000596    -0.8890025988    -0.9826265175
    8      H       0.0000001374     0.7833820716    -1.4671067868
    9      H      -1.1465681729    -0.8903811491     0.7695033045
   10      H      -2.1486904978    -0.0318933050    -0.3595152378
   11      H      -1.4333033235     0.8355612857     1.0192902826
 ----------------------------------------------------------------

    7    -119.0861938450      4.69E-06 Convergence criterion met
    6    -119.1297148583      3.80E-06 Convergence criterion met
 Total energy in the final basis set = -119.12971486

                    Orbital Energies (a.u.)
 --------------------------------------------------------------

 Alpha MOs
 -- Occupied --
-10.2752 -10.2661 -10.2661  -0.8873  -0.7779  -0.6770  -0.5524  -0.5227
 -0.4892  -0.4565  -0.4232  -0.4167  -0.3979

                    Cartesian Multipole Moments
 -----------------------------------------------------------------
    Charge (ESU x 10^10)
                -0.0000
    Dipole Moment (Debye)
         X       0.0000      Y      -0.1830      Z      -0.1062
       Tot       0.2115
    Quadrupole Moments (Debye-Ang)
        XX     -22.2003     XY      -0.0000     YY     -21.5380
        XZ       0.0000     YZ       0.1301     ZZ     -21.7544

 Total job time:  27.10s(wall), 73.78s(cpu)
        *  Thank you very much for using Q-Chem.  Have a nice day.  *
