 Q-Chem 5.2 (devel), Q-Chem, Inc., Pleasanton, CA (2019)
 Q-Chem 5.2.2 for Intel X86 EM64T Linux

User input:
--------------------------------------------------------------
$rem
   JOBTYPE  sp
   EXCHANGE   omegaB97X-D
   BASIS   6-311+G(2df,2pd)
   max_scf_cycles   250
   geom_opt_max_cycles   1500
   basis2 6-31G*
   scf_algorithm rca_diis
   SYM_IGNORE  TRUE
   print_input   true
   geom_opt_dmax   80
   pop_mulliken false
   XC_GRID 000075000302
$end

$molecule
0 1
C       1.2611998993     -0.1372046424     0.2528956832
C       -0.0055023721     -0.0022524410     -0.5887238591
H       1.3390225969     -0.9324606571     0.9960189071
H       1.2675596890     0.8081321125     0.8018717624
H       2.1502996481     -0.0439199490     -0.3709378104
C       -1.2608078059     0.1347117413     0.2597077166
H       0.4155549867     -0.7941121343     -1.2127636912
H       -0.4005968890     0.7999299283     -1.2165456996
H       -1.2707377102     -0.8207999105     0.7893588283
H       -2.1583840054     0.0408787717     -0.3530141634
H       -1.3376080979     0.9470978465     0.9831773449
--------------------------------------------------------------

             Standard Nuclear Orientation (Angstroms)
    I     Atom           X                Y                Z
 ----------------------------------------------------------------
    1      C       1.2611998993    -0.1372046424     0.2528956832
    2      C      -0.0055023721    -0.0022524410    -0.5887238591
    3      H       1.3390225969    -0.9324606571     0.9960189071
    4      H       1.2675596890     0.8081321125     0.8018717624
    5      H       2.1502996481    -0.0439199490    -0.3709378104
    6      C      -1.2608078059     0.1347117413     0.2597077166
    7      H       0.4155549867    -0.7941121343    -1.2127636912
    8      H      -0.4005968890     0.7999299283    -1.2165456996
    9      H      -1.2707377102    -0.8207999105     0.7893588283
   10      H      -2.1583840054     0.0408787717    -0.3530141634
   11      H      -1.3376080979     0.9470978465     0.9831773449
 ----------------------------------------------------------------

    7    -119.0268191385      7.47E-06 Convergence criterion met
    6    -119.0725613399      4.78E-06 Convergence criterion met
 Total energy in the final basis set = -119.07256134

                    Orbital Energies (a.u.)
 --------------------------------------------------------------

 Alpha MOs
 -- Occupied --
-10.2726 -10.2698 -10.2698  -0.8900  -0.7873  -0.6771  -0.5550  -0.5290
 -0.5107  -0.4755  -0.4339  -0.3982  -0.3433

                    Cartesian Multipole Moments
 -----------------------------------------------------------------
    Charge (ESU x 10^10)
                -0.0000
    Dipole Moment (Debye)
         X       0.0026      Y       0.0070      Z       0.0371
       Tot       0.0378
    Quadrupole Moments (Debye-Ang)
        XX     -21.7749     XY      -1.0825     YY     -21.7713
        XZ      -0.0315     YZ      -0.0049     ZZ     -22.2325

 Total job time:  49.51s(wall), 137.84s(cpu)
        *  Thank you very much for using Q-Chem.  Have a nice day.  *
