 Q-Chem 5.3 (devel), Q-Chem, Inc., Pleasanton, CA (2020)
 Q-Chem 5.3.0 for Intel X86 EM64T Linux

User input:
--------------------------------------------------------------
$rem
   JOBTYPE  sp
   EXCHANGE   omegaB97X-D
   BASIS   6-311+G(2df,2pd)
   UNRESTRICTED   False
   max_scf_cycles   250
   geom_opt_max_cycles   1500
   basis2 6-31G*
   scf_algorithm rca_diis
   SYM_IGNORE  TRUE
   print_input   true
   geom_opt_dmax   80
   pop_mulliken false
   XC_GRID 000075000302
$end

$molecule
0 1
C       1.2671300072     0.0024908949     0.2578708714
C       0.0000000643     -0.0311763200     -0.5884129936
H       1.2851016678     -0.9204856547     0.9753648461
H       1.3220104157     0.8379102686     0.8322994103
H       2.1635198699     -0.0460084046     -0.3592406496
C       -1.2671297975     0.0024904186     0.2578709183
H       0.0000001201     -0.7328421796     -1.1289681605
H       -0.0000001181     1.0162035474     -1.3541627621
H       -1.2851012719     -0.9204850446     0.9753642037
H       -2.1635205430     -0.0460082343     -0.3592411721
H       -1.3220104751     0.8379113743     0.8323005070
$end
--------------------------------------------------------------

             Standard Nuclear Orientation (Angstroms)
    I     Atom           X                Y                Z
 ----------------------------------------------------------------
    1      C       1.2671300072     0.0024908949     0.2578708714
    2      C       0.0000000643    -0.0311763200    -0.5884129936
    3      H       1.2851016678    -0.9204856547     0.9753648461
    4      H       1.3220104157     0.8379102686     0.8322994103
    5      H       2.1635198699    -0.0460084046    -0.3592406496
    6      C      -1.2671297975     0.0024904186     0.2578709183
    7      H       0.0000001201    -0.7328421796    -1.1289681605
    8      H      -0.0000001181     1.0162035474    -1.3541627621
    9      H      -1.2851012719    -0.9204850446     0.9753642037
   10      H      -2.1635205430    -0.0460082343    -0.3592411721
   11      H      -1.3220104751     0.8379113743     0.8323005070
 ----------------------------------------------------------------

    7    -119.0307826131      5.90E-06 Convergence criterion met
    6    -119.0767577698      4.21E-06 Convergence criterion met
 Total energy in the final basis set = -119.07675777

                    Orbital Energies (a.u.)
 --------------------------------------------------------------

 Alpha MOs
 -- Occupied --
-10.2719 -10.2659 -10.2659  -0.8876  -0.7803  -0.6959  -0.5447  -0.5219
 -0.4929  -0.4560  -0.4406  -0.4205  -0.3883

                    Cartesian Multipole Moments
 -----------------------------------------------------------------
    Charge (ESU x 10^10)
                -0.0000
    Dipole Moment (Debye)
         X       0.0000      Y      -0.0670      Z      -0.0103
       Tot       0.0678
    Quadrupole Moments (Debye-Ang)
        XX     -22.0408     XY       0.0000     YY     -21.4054
        XZ      -0.0000     YZ       0.3890     ZZ     -22.0062

 Total job time:  27.53s(wall), 74.75s(cpu)
        *  Thank you very much for using Q-Chem.  Have a nice day.  *
