 Q-Chem 5.3 (devel), Q-Chem, Inc., Pleasanton, CA (2020)
 Q-Chem 5.3.0 for Intel X86 EM64T Linux

User input:
--------------------------------------------------------------
$rem
   JOBTYPE  sp
   EXCHANGE   omegaB97X-D
   BASIS   6-311+G(2df,2pd)
   UNRESTRICTED   False
   max_scf_cycles   250
   geom_opt_max_cycles   1500
   basis2 6-31G*
   scf_algorithm rca_diis
   SYM_IGNORE  TRUE
   print_input   true
   geom_opt_dmax   80
   pop_mulliken false
   XC_GRID 000075000302
$end

$molecule
0 1
C       1.2691478054     -0.1484308129     0.2472792744
C       -0.0059699594     -0.0066229898     -0.5803893869
H       1.3698625186     -0.9767646915     0.9504435066
H       1.2366165301     0.7589472129     0.8561170743
H       2.1555322920     0.0133773999     -0.3663243799
C       -1.2673647933     0.1495434671     0.2556024255
H       0.4144458070     -0.7879079443     -1.2180421627
H       -0.3995070161     0.7738693065     -1.2359174860
H       -1.2563084932     -0.7778166868     0.8331073488
H       -2.1645773427     0.0149576789     -0.3500148918
H       -1.3518774092     0.9868487260     0.9491836967
$end
--------------------------------------------------------------

             Standard Nuclear Orientation (Angstroms)
    I     Atom           X                Y                Z
 ----------------------------------------------------------------
    1      C       1.2691478054    -0.1484308129     0.2472792744
    2      C      -0.0059699594    -0.0066229898    -0.5803893869
    3      H       1.3698625186    -0.9767646915     0.9504435066
    4      H       1.2366165301     0.7589472129     0.8561170743
    5      H       2.1555322920     0.0133773999    -0.3663243799
    6      C      -1.2673647933     0.1495434671     0.2556024255
    7      H       0.4144458070    -0.7879079443    -1.2180421627
    8      H      -0.3995070161     0.7738693065    -1.2359174860
    9      H      -1.2563084932    -0.7778166868     0.8331073488
   10      H      -2.1645773427     0.0149576789    -0.3500148918
   11      H      -1.3518774092     0.9868487260     0.9491836967
 ----------------------------------------------------------------

    7    -119.0244994123      7.48E-06 Convergence criterion met
    6    -119.0703061663      4.85E-06 Convergence criterion met
 Total energy in the final basis set = -119.07030617

                    Orbital Energies (a.u.)
 --------------------------------------------------------------

 Alpha MOs
 -- Occupied --
-10.2725 -10.2705 -10.2704  -0.8897  -0.7879  -0.6783  -0.5524  -0.5301
 -0.5109  -0.4762  -0.4360  -0.3980  -0.3407

                    Cartesian Multipole Moments
 -----------------------------------------------------------------
    Charge (ESU x 10^10)
                -0.0000
    Dipole Moment (Debye)
         X       0.0038      Y       0.0060      Z       0.0331
       Tot       0.0338
    Quadrupole Moments (Debye-Ang)
        XX     -21.6872     XY      -1.0714     YY     -21.8305
        XZ      -0.0222     YZ      -0.0200     ZZ     -22.2192

 Total job time:  28.72s(wall), 77.18s(cpu)
        *  Thank you very much for using Q-Chem.  Have a nice day.  *
