 Q-Chem 5.3 (devel), Q-Chem, Inc., Pleasanton, CA (2020)
 Q-Chem 5.3.0 for Intel X86 EM64T Linux

User input:
--------------------------------------------------------------
$rem
   JOBTYPE  sp
   EXCHANGE   omegaB97X-D
   BASIS   6-311+G(2df,2pd)
   UNRESTRICTED   False
   max_scf_cycles   250
   geom_opt_max_cycles   1500
   basis2 6-31G*
   scf_algorithm rca_diis
   SYM_IGNORE  TRUE
   print_input   true
   geom_opt_dmax   80
   pop_mulliken false
   XC_GRID 000075000302
$end

$molecule
0 1
C       1.2689317478     0.0140198861     0.2465079799
C       0.0000000056     0.0131168352     -0.6063970019
H       1.3356944998     -0.8561189417     0.9054114956
H       1.2623550021     0.8684851365     0.9253978159
H       2.1536625934     -0.0433530457     -0.3871719195
C       -1.2689318046     0.0140201022     0.2465079549
H       -0.0000002120     -0.8945848328     -1.2118834890
H       0.0000000168     0.9154021017     -1.2209650214
H       -1.3356949313     -0.8561186503     0.9054115629
H       -2.1536625705     -0.0433534433     -0.3871719344
H       -1.2623544077     0.8684855181     0.9253975759
$end
--------------------------------------------------------------

             Standard Nuclear Orientation (Angstroms)
    I     Atom           X                Y                Z
 ----------------------------------------------------------------
    1      C       1.2689317478     0.0140198861     0.2465079799
    2      C       0.0000000056     0.0131168352    -0.6063970019
    3      H       1.3356944998    -0.8561189417     0.9054114956
    4      H       1.2623550021     0.8684851365     0.9253978159
    5      H       2.1536625934    -0.0433530457    -0.3871719195
    6      C      -1.2689318046     0.0140201022     0.2465079549
    7      H      -0.0000002120    -0.8945848328    -1.2118834890
    8      H       0.0000000168     0.9154021017    -1.2209650214
    9      H      -1.3356949313    -0.8561186503     0.9054115629
   10      H      -2.1536625705    -0.0433534433    -0.3871719344
   11      H      -1.2623544077     0.8684855181     0.9253975759
 ----------------------------------------------------------------

    7    -119.0995885169      4.69E-06 Convergence criterion met
    5    -119.1426314600      9.69E-06 Convergence criterion met
 Total energy in the final basis set = -119.14263146

                    Orbital Energies (a.u.)
 --------------------------------------------------------------

 Alpha MOs
 -- Occupied --
-10.2752 -10.2648 -10.2648  -0.8809  -0.7766  -0.6768  -0.5496  -0.5214
 -0.4892  -0.4593  -0.4169  -0.4138  -0.4096

                    Cartesian Multipole Moments
 -----------------------------------------------------------------
    Charge (ESU x 10^10)
                -0.0000
    Dipole Moment (Debye)
         X       0.0000      Y      -0.0681      Z      -0.0448
       Tot       0.0815
    Quadrupole Moments (Debye-Ang)
        XX     -22.3362     XY       0.0000     YY     -21.4064
        XZ       0.0000     YZ       0.1168     ZZ     -21.7798

 Total job time:  25.28s(wall), 67.77s(cpu)
        *  Thank you very much for using Q-Chem.  Have a nice day.  *
