 Q-Chem 5.3 (devel), Q-Chem, Inc., Pleasanton, CA (2020)
 Q-Chem 5.3.0 for Intel X86 EM64T Linux

User input:
--------------------------------------------------------------
$rem
   JOBTYPE  sp
   EXCHANGE   omegaB97X-D
   BASIS   6-311+G(2df,2pd)
   UNRESTRICTED   False
   max_scf_cycles   250
   geom_opt_max_cycles   1500
   basis2 6-31G*
   scf_algorithm rca_diis
   SYM_IGNORE  TRUE
   print_input   true
   geom_opt_dmax   80
   pop_mulliken false
   XC_GRID 000075000302
$end

$molecule
0 1
C       1.2929486607     -0.0010610347     0.2331189572
C       0.0078692350     0.0003226123     -0.5873168803
H       1.3385274110     -0.9313053642     0.9079837649
H       1.3296578611     0.9130412609     0.9231046252
H       2.0770895662     0.0078382064     -0.3175810882
C       -1.2409150101     0.0019242256     0.2852835011
H       -0.0012537315     -0.8736480398     -1.2429612266
H       0.0013083796     0.8740921729     -1.2432288601
H       -1.2718076129     -0.8292459960     0.8988970968
H       -2.2526563173     -0.0100265439     -0.4011789835
H       -1.2807685024     0.8480691665     0.8849241123
$end
--------------------------------------------------------------

             Standard Nuclear Orientation (Angstroms)
    I     Atom           X                Y                Z
 ----------------------------------------------------------------
    1      C       1.2929486607    -0.0010610347     0.2331189572
    2      C       0.0078692350     0.0003226123    -0.5873168803
    3      H       1.3385274110    -0.9313053642     0.9079837649
    4      H       1.3296578611     0.9130412609     0.9231046252
    5      H       2.0770895662     0.0078382064    -0.3175810882
    6      C      -1.2409150101     0.0019242256     0.2852835011
    7      H      -0.0012537315    -0.8736480398    -1.2429612266
    8      H       0.0013083796     0.8740921729    -1.2432288601
    9      H      -1.2718076129    -0.8292459960     0.8988970968
   10      H      -2.2526563173    -0.0100265439    -0.4011789835
   11      H      -1.2807685024     0.8480691665     0.8849241123
 ----------------------------------------------------------------

    7    -119.0724729352      5.22E-06 Convergence criterion met
    5    -119.1166439165      9.66E-06 Convergence criterion met
 Total energy in the final basis set = -119.11664392

                    Orbital Energies (a.u.)
 --------------------------------------------------------------

 Alpha MOs
 -- Occupied --
-10.2750 -10.2658 -10.2629  -0.8831  -0.7820  -0.6807  -0.5476  -0.5293
 -0.4801  -0.4652  -0.4249  -0.4099  -0.4070

                    Cartesian Multipole Moments
 -----------------------------------------------------------------
    Charge (ESU x 10^10)
                 0.0000
    Dipole Moment (Debye)
         X       0.1644      Y       0.0032      Z      -0.0761
       Tot       0.1812
    Quadrupole Moments (Debye-Ang)
        XX     -22.2917     XY       0.0105     YY     -21.3597
        XZ      -0.2573     YZ       0.0026     ZZ     -21.8095

 Total job time:  26.19s(wall), 69.85s(cpu)
        *  Thank you very much for using Q-Chem.  Have a nice day.  *
