 Q-Chem 5.3 (devel), Q-Chem, Inc., Pleasanton, CA (2020)
 Q-Chem 5.3.0 for Intel X86 EM64T Linux

User input:
--------------------------------------------------------------
$rem
   JOBTYPE  sp
   EXCHANGE   omegaB97X-D
   BASIS   6-311+G(2df,2pd)
   UNRESTRICTED   False
   max_scf_cycles   250
   geom_opt_max_cycles   1500
   basis2 6-31G*
   scf_algorithm rca_diis
   SYM_IGNORE  TRUE
   print_input   true
   geom_opt_dmax   80
   pop_mulliken false
   XC_GRID 000075000302
$end

$molecule
0 1
C       1.3913374194     0.0143878198     0.2601777662
C       -0.0000001061     -0.0133531360     -0.7551413484
H       1.3234806948     -0.8759454619     0.8915423374
H       1.2779384427     0.8601055507     0.9430614694
H       2.4070238676     0.0428455135     -0.1396568317
C       -1.3913380428     0.0143872920     0.2601770905
H       0.0000011208     -0.9104927148     -1.3782467395
H       -0.0000000871     0.8410601237     -1.4358159398
H       -1.3234811899     -0.8759459843     0.8915416550
H       -2.4070250229     0.0428473953     -0.1396558783
H       -1.2779371570     0.8601042680     0.9430614383
$end
--------------------------------------------------------------

             Standard Nuclear Orientation (Angstroms)
    I     Atom           X                Y                Z
 ----------------------------------------------------------------
    1      C       1.3913374194     0.0143878198     0.2601777662
    2      C      -0.0000001061    -0.0133531360    -0.7551413484
    3      H       1.3234806948    -0.8759454619     0.8915423374
    4      H       1.2779384427     0.8601055507     0.9430614694
    5      H       2.4070238676     0.0428455135    -0.1396568317
    6      C      -1.3913380428     0.0143872920     0.2601770905
    7      H       0.0000011208    -0.9104927148    -1.3782467395
    8      H      -0.0000000871     0.8410601237    -1.4358159398
    9      H      -1.3234811899    -0.8759459843     0.8915416550
   10      H      -2.4070250229     0.0428473953    -0.1396558783
   11      H      -1.2779371570     0.8601042680     0.9430614383
 ----------------------------------------------------------------

    7    -119.0662974029      4.12E-06 Convergence criterion met
    5    -119.1087798382      8.66E-06 Convergence criterion met
 Total energy in the final basis set = -119.10877984

                    Orbital Energies (a.u.)
 --------------------------------------------------------------

 Alpha MOs
 -- Occupied --
-10.3057 -10.2811 -10.2811  -0.8383  -0.7682  -0.6955  -0.5220  -0.5100
 -0.4635  -0.4602  -0.4261  -0.4116  -0.4087

                    Cartesian Multipole Moments
 -----------------------------------------------------------------
    Charge (ESU x 10^10)
                -0.0000
    Dipole Moment (Debye)
         X       0.0000      Y      -0.0232      Z       0.0547
       Tot       0.0594
    Quadrupole Moments (Debye-Ang)
        XX     -21.2811     XY      -0.0000     YY     -21.7535
        XZ      -0.0000     YZ       0.0476     ZZ     -21.9290

 Total job time:  25.31s(wall), 67.63s(cpu)
        *  Thank you very much for using Q-Chem.  Have a nice day.  *
