 Q-Chem 5.2 (devel), Q-Chem, Inc., Pleasanton, CA (2019)
 Q-Chem 5.2.2 for Intel X86 EM64T Linux

User input:
--------------------------------------------------------------
$rem
   JOBTYPE  sp
   EXCHANGE   omegaB97X-D
   BASIS   6-311+G(2df,2pd)
   max_scf_cycles   250
   geom_opt_max_cycles   1500
   basis2 6-31G*
   scf_algorithm rca_diis
   SYM_IGNORE  TRUE
   print_input   true
   geom_opt_dmax   80
   pop_mulliken false
   XC_GRID 000075000302
$end

$molecule
0 1
C       1.2676342627     0.0642616931     0.2578847510
C       -0.0000014250     0.0605645666     -0.5883994919
H       1.3096255261     -0.9413092829     0.9815540144
H       1.3011556541     0.8262282291     0.8251167754
H       2.1589610854     0.0505609189     -0.3571141591
C       -1.2676439185     0.0642632192     0.2578748540
H       -0.0000000572     -0.9032400563     -1.3019051049
H       0.0000000597     0.8431946947     -1.1835481263
H       -1.3096369969     -0.9413285963     0.9815619109
H       -2.1589283933     0.0505637175     -0.3570988196
H       -1.3011658576     0.8262415624     0.8251184149
--------------------------------------------------------------

             Standard Nuclear Orientation (Angstroms)
    I     Atom           X                Y                Z
 ----------------------------------------------------------------
    1      C       1.2676342627     0.0642616931     0.2578847510
    2      C      -0.0000014250     0.0605645666    -0.5883994919
    3      H       1.3096255261    -0.9413092829     0.9815540144
    4      H       1.3011556541     0.8262282291     0.8251167754
    5      H       2.1589610854     0.0505609189    -0.3571141591
    6      C      -1.2676439185     0.0642632192     0.2578748540
    7      H      -0.0000000572    -0.9032400563    -1.3019051049
    8      H       0.0000000597     0.8431946947    -1.1835481263
    9      H      -1.3096369969    -0.9413285963     0.9815619109
   10      H      -2.1589283933     0.0505637175    -0.3570988196
   11      H      -1.3011658576     0.8262415624     0.8251184149
 ----------------------------------------------------------------

    7    -119.0341606491      5.02E-06 Convergence criterion met
    5    -119.0799112977      9.80E-06 Convergence criterion met
 Total energy in the final basis set = -119.07991130

                    Orbital Energies (a.u.)
 --------------------------------------------------------------

 Alpha MOs
 -- Occupied --
-10.2742 -10.2636 -10.2636  -0.8867  -0.7850  -0.6873  -0.5484  -0.5273
 -0.5021  -0.4458  -0.4199  -0.4173  -0.4045

                    Cartesian Multipole Moments
 -----------------------------------------------------------------
    Charge (ESU x 10^10)
                -0.0000
    Dipole Moment (Debye)
         X      -0.0000      Y       0.4514      Z      -0.1379
       Tot       0.4720
    Quadrupole Moments (Debye-Ang)
        XX     -22.1133     XY      -0.0000     YY     -21.3081
        XZ       0.0001     YZ      -0.0063     ZZ     -21.9278

 Total job time:  44.13s(wall), 122.23s(cpu)
        *  Thank you very much for using Q-Chem.  Have a nice day.  *
