 Q-Chem 5.3 (devel), Q-Chem, Inc., Pleasanton, CA (2020)
 Q-Chem 5.3.0 for Intel X86 EM64T Linux

User input:
--------------------------------------------------------------
$rem
   JOBTYPE  sp
   EXCHANGE   omegaB97X-D
   BASIS   6-311+G(2df,2pd)
   UNRESTRICTED   False
   max_scf_cycles   250
   geom_opt_max_cycles   1500
   basis2 6-31G*
   scf_algorithm rca_diis
   SYM_IGNORE  TRUE
   print_input   true
   geom_opt_dmax   80
   pop_mulliken false
   XC_GRID 000075000302
$end

$molecule
0 1
C       1.3431249856     0.0081721843     0.2589558194
C       -0.0000000573     -0.0080744572     -0.6875389626
H       1.3177762178     -0.8782114011     0.8977848054
H       1.2895909761     0.8686051196     0.9300116499
H       2.3179143582     0.0269589956     -0.2314104574
C       -1.3431253409     0.0081718476     0.2589554058
H       0.0000006875     -0.8966215662     -1.3230376193
H       -0.0000000746     0.8536469045     -1.3590617941
H       -1.3177765065     -0.8782117336     0.8977843848
H       -2.3179151260     0.0269604171     -0.2314099313
H       -1.2895901806     0.8686043554     0.9300117183
$end
--------------------------------------------------------------

             Standard Nuclear Orientation (Angstroms)
    I     Atom           X                Y                Z
 ----------------------------------------------------------------
    1      C       1.3431249856     0.0081721843     0.2589558194
    2      C      -0.0000000573    -0.0080744572    -0.6875389626
    3      H       1.3177762178    -0.8782114011     0.8977848054
    4      H       1.2895909761     0.8686051196     0.9300116499
    5      H       2.3179143582     0.0269589956    -0.2314104574
    6      C      -1.3431253409     0.0081718476     0.2589554058
    7      H       0.0000006875    -0.8966215662    -1.3230376193
    8      H      -0.0000000746     0.8536469045    -1.3590617941
    9      H      -1.3177765065    -0.8782117336     0.8977843848
   10      H      -2.3179151260     0.0269604171    -0.2314099313
   11      H      -1.2895901806     0.8686043554     0.9300117183
 ----------------------------------------------------------------

    7    -119.0886306308      5.85E-06 Convergence criterion met
    5    -119.1309689372      9.58E-06 Convergence criterion met
 Total energy in the final basis set = -119.13096894

                    Orbital Energies (a.u.)
 --------------------------------------------------------------

 Alpha MOs
 -- Occupied --
-10.2936 -10.2751 -10.2751  -0.8530  -0.7706  -0.6885  -0.5301  -0.5144
 -0.4676  -0.4615  -0.4192  -0.4180  -0.4131

                    Cartesian Multipole Moments
 -----------------------------------------------------------------
    Charge (ESU x 10^10)
                 0.0000
    Dipole Moment (Debye)
         X       0.0000      Y      -0.0114      Z      -0.0009
       Tot       0.0114
    Quadrupole Moments (Debye-Ang)
        XX     -21.5916     XY      -0.0000     YY     -21.6016
        XZ      -0.0000     YZ       0.0237     ZZ     -21.9291

 Total job time:  25.24s(wall), 67.28s(cpu)
        *  Thank you very much for using Q-Chem.  Have a nice day.  *
