 Q-Chem 5.2 (devel), Q-Chem, Inc., Pleasanton, CA (2019)
 Q-Chem 5.2.2 for Intel X86 EM64T Linux

User input:
--------------------------------------------------------------
$rem
   JOBTYPE  sp
   EXCHANGE   omegaB97X-D
   BASIS   6-311+G(2df,2pd)
   max_scf_cycles   250
   geom_opt_max_cycles   1500
   basis2 6-31G*
   scf_algorithm rca_diis
   SYM_IGNORE  TRUE
   print_input   true
   geom_opt_dmax   80
   pop_mulliken false
   XC_GRID 000075000302
$end

$molecule
0 1
C       1.3074786219     -0.0155547963     0.1972958452
C       0.0276433922     -0.0001779972     -0.5880212265
H       1.2722726128     -0.8651159281     0.8823503146
H       1.2219158104     0.8704174608     0.8315783145
H       2.2802259561     -0.0009449834     -0.2921490099
C       -1.2247005867     0.0167006173     0.3190942078
H       -0.1098913147     -0.8690583391     -1.2360086432
H       -0.0304708659     0.8735255597     -1.2414900762
H       -1.3294864819     -0.8895164431     0.9189674773
H       -2.0313458340     -0.0006708880     -0.4166117333
H       -1.3836413707     0.8803964034     0.9660395486
--------------------------------------------------------------

             Standard Nuclear Orientation (Angstroms)
    I     Atom           X                Y                Z
 ----------------------------------------------------------------
    1      C       1.3074786219    -0.0155547963     0.1972958452
    2      C       0.0276433922    -0.0001779972    -0.5880212265
    3      H       1.2722726128    -0.8651159281     0.8823503146
    4      H       1.2219158104     0.8704174608     0.8315783145
    5      H       2.2802259561    -0.0009449834    -0.2921490099
    6      C      -1.2247005867     0.0167006173     0.3190942078
    7      H      -0.1098913147    -0.8690583391    -1.2360086432
    8      H      -0.0304708659     0.8735255597    -1.2414900762
    9      H      -1.3294864819    -0.8895164431     0.9189674773
   10      H      -2.0313458340    -0.0006708880    -0.4166117333
   11      H      -1.3836413707     0.8803964034     0.9660395486
 ----------------------------------------------------------------

    7    -119.0943824908      4.60E-06 Convergence criterion met
    6    -119.1375939314      4.01E-06 Convergence criterion met
 Total energy in the final basis set = -119.13759393

                    Orbital Energies (a.u.)
 --------------------------------------------------------------

 Alpha MOs
 -- Occupied --
-10.2758 -10.2670 -10.2634  -0.8833  -0.7782  -0.6780  -0.5465  -0.5273
 -0.4839  -0.4632  -0.4187  -0.4132  -0.4061

                    Cartesian Multipole Moments
 -----------------------------------------------------------------
    Charge (ESU x 10^10)
                 0.0000
    Dipole Moment (Debye)
         X      -0.0679      Y       0.0063      Z      -0.0829
       Tot       0.1073
    Quadrupole Moments (Debye-Ang)
        XX     -22.1294     XY      -0.0087     YY     -21.4152
        XZ      -0.0571     YZ      -0.0112     ZZ     -21.8771

 Total job time:  49.47s(wall), 138.13s(cpu)
        *  Thank you very much for using Q-Chem.  Have a nice day.  *
