 Q-Chem 5.3 (devel), Q-Chem, Inc., Pleasanton, CA (2020)
 Q-Chem 5.3.0 for Intel X86 EM64T Linux

User input:
--------------------------------------------------------------
$rem
   JOBTYPE  sp
   EXCHANGE   omegaB97X-D
   BASIS   6-311+G(2df,2pd)
   UNRESTRICTED   False
   max_scf_cycles   250
   geom_opt_max_cycles   1500
   basis2 6-31G*
   scf_algorithm rca_diis
   SYM_IGNORE  TRUE
   print_input   true
   geom_opt_dmax   80
   pop_mulliken false
   XC_GRID 000075000302
$end

$molecule
0 1
C       1.2699581750     -0.0000397158     0.2666033212
C       0.0000003723     0.0001030305     -0.5828262584
H       1.3042904723     -0.8444801669     0.8829747837
H       1.3046377273     0.8445942468     0.8827495511
H       2.1342030990     -0.0003098722     -0.3332615465
C       -1.2699572929     -0.0000396423     0.2666027041
H       0.0000004596     -0.8722135895     -1.2372955162
H       0.0000004336     0.8725818131     -1.2369671381
H       -1.3042901837     -0.8444847954     0.8829777134
H       -2.1342060236     -0.0003090248     -0.3332647865
H       -1.3046372995     0.8445983825     0.8827521911
$end
--------------------------------------------------------------

             Standard Nuclear Orientation (Angstroms)
    I     Atom           X                Y                Z
 ----------------------------------------------------------------
    1      C       1.2699581750    -0.0000397158     0.2666033212
    2      C       0.0000003723     0.0001030305    -0.5828262584
    3      H       1.3042904723    -0.8444801669     0.8829747837
    4      H       1.3046377273     0.8445942468     0.8827495511
    5      H       2.1342030990    -0.0003098722    -0.3332615465
    6      C      -1.2699572929    -0.0000396423     0.2666027041
    7      H       0.0000004596    -0.8722135895    -1.2372955162
    8      H       0.0000004336     0.8725818131    -1.2369671381
    9      H      -1.3042901837    -0.8444847954     0.8829777134
   10      H      -2.1342060236    -0.0003090248    -0.3332647865
   11      H      -1.3046372995     0.8445983825     0.8827521911
 ----------------------------------------------------------------

    7    -119.0938203321      5.08E-06 Convergence criterion met
    6    -119.1385561875      4.08E-06 Convergence criterion met
 Total energy in the final basis set = -119.13855619

                    Orbital Energies (a.u.)
 --------------------------------------------------------------

 Alpha MOs
 -- Occupied --
-10.2714 -10.2498 -10.2498  -0.8835  -0.7878  -0.6842  -0.5490  -0.5282
 -0.4882  -0.4729  -0.4194  -0.4189  -0.4106

                    Cartesian Multipole Moments
 -----------------------------------------------------------------
    Charge (ESU x 10^10)
                 0.0000
    Dipole Moment (Debye)
         X       0.0000      Y       0.0000      Z      -0.0183
       Tot       0.0183
    Quadrupole Moments (Debye-Ang)
        XX     -21.8274     XY      -0.0000     YY     -21.1657
        XZ       0.0000     YZ       0.0000     ZZ     -21.6335

 Total job time:  27.27s(wall), 74.24s(cpu)
        *  Thank you very much for using Q-Chem.  Have a nice day.  *
