 Q-Chem 5.3 (devel), Q-Chem, Inc., Pleasanton, CA (2020)
 Q-Chem 5.3.0 for Intel X86 EM64T Linux

User input:
--------------------------------------------------------------
$rem
   JOBTYPE  sp
   EXCHANGE   omegaB97X-D
   BASIS   6-311+G(2df,2pd)
   UNRESTRICTED   False
   max_scf_cycles   250
   geom_opt_max_cycles   1500
   basis2 6-31G*
   scf_algorithm rca_diis
   SYM_IGNORE  TRUE
   print_input   true
   geom_opt_dmax   80
   pop_mulliken false
   XC_GRID 000075000302
$end

$molecule
0 1
C       1.2654996144     0.0239757677     0.2605507846
C       -0.0000000090     0.0455743325     -0.5872118656
H       1.2550410015     -0.8884753553     0.8613322709
H       1.3537730132     0.8706115713     0.9430304175
H       2.1613924470     -0.0125989425     -0.3603057444
C       -1.2654996739     0.0239757601     0.2605506978
H       -0.0000000104     -0.8861459798     -1.1598535401
H       0.0000000039     0.8535457160     -1.3211049582
H       -1.2550409721     -0.8884753960     0.8613321320
H       -2.1613925844     -0.0125982014     -0.3603057570
H       -1.3537728907     0.8706113934     0.9430305815
$end
--------------------------------------------------------------

             Standard Nuclear Orientation (Angstroms)
    I     Atom           X                Y                Z
 ----------------------------------------------------------------
    1      C       1.2654996144     0.0239757677     0.2605507846
    2      C      -0.0000000090     0.0455743325    -0.5872118656
    3      H       1.2550410015    -0.8884753553     0.8613322709
    4      H       1.3537730132     0.8706115713     0.9430304175
    5      H       2.1613924470    -0.0125989425    -0.3603057444
    6      C      -1.2654996739     0.0239757601     0.2605506978
    7      H      -0.0000000104    -0.8861459798    -1.1598535401
    8      H       0.0000000039     0.8535457160    -1.3211049582
    9      H      -1.2550409721    -0.8884753960     0.8613321320
   10      H      -2.1613925844    -0.0125982014    -0.3603057570
   11      H      -1.3537728907     0.8706113934     0.9430305815
 ----------------------------------------------------------------

    7    -119.1013612509      4.53E-06 Convergence criterion met
    6    -119.1443332327      3.85E-06 Convergence criterion met
 Total energy in the final basis set = -119.14433323

                    Orbital Energies (a.u.)
 --------------------------------------------------------------

 Alpha MOs
 -- Occupied --
-10.2741 -10.2652 -10.2652  -0.8819  -0.7772  -0.6776  -0.5467  -0.5239
 -0.4834  -0.4629  -0.4185  -0.4182  -0.4064

                    Cartesian Multipole Moments
 -----------------------------------------------------------------
    Charge (ESU x 10^10)
                -0.0000
    Dipole Moment (Debye)
         X       0.0000      Y      -0.0590      Z      -0.0897
       Tot       0.1073
    Quadrupole Moments (Debye-Ang)
        XX     -22.1781     XY      -0.0000     YY     -21.3707
        XZ       0.0000     YZ       0.0367     ZZ     -21.8365

 Total job time:  27.73s(wall), 74.80s(cpu)
        *  Thank you very much for using Q-Chem.  Have a nice day.  *
