 Q-Chem 5.3 (devel), Q-Chem, Inc., Pleasanton, CA (2020)
 Q-Chem 5.3.0 for Intel X86 EM64T Linux

User input:
--------------------------------------------------------------
$rem
   JOBTYPE  sp
   EXCHANGE   omegaB97X-D
   BASIS   6-311+G(2df,2pd)
   UNRESTRICTED   False
   max_scf_cycles   250
   geom_opt_max_cycles   1500
   basis2 6-31G*
   scf_algorithm rca_diis
   SYM_IGNORE  TRUE
   print_input   true
   geom_opt_dmax   80
   pop_mulliken false
   XC_GRID 000075000302
$end

$molecule
0 1
C       1.4226466258     -0.0047085709     0.2633721787
C       -0.0000000473     0.0155035872     -0.3344180642
H       1.6493516965     -0.8813807323     0.8717507262
H       1.6938426642     0.8878644674     0.8293475663
H       2.0742874761     -0.0386118244     -0.6132312283
C       -1.4226468329     -0.0047089656     0.2633718462
H       0.0000005422     -0.8290014724     -1.0309416118
H       -0.0000002844     0.8871718872     -0.9960735750
H       -1.6493519686     -0.8813811133     0.8717503708
H       -2.0742880017     -0.0386104388     -0.6132312094
H       -1.6938419304     0.8878638420     0.8293480194
$end
--------------------------------------------------------------

             Standard Nuclear Orientation (Angstroms)
    I     Atom           X                Y                Z
 ----------------------------------------------------------------
    1      C       1.4226466258    -0.0047085709     0.2633721787
    2      C      -0.0000000473     0.0155035872    -0.3344180642
    3      H       1.6493516965    -0.8813807323     0.8717507262
    4      H       1.6938426642     0.8878644674     0.8293475663
    5      H       2.0742874761    -0.0386118244    -0.6132312283
    6      C      -1.4226468329    -0.0047089656     0.2633718462
    7      H       0.0000005422    -0.8290014724    -1.0309416118
    8      H      -0.0000002844     0.8871718872    -0.9960735750
    9      H      -1.6493519686    -0.8813811133     0.8717503708
   10      H      -2.0742880017    -0.0386104388    -0.6132312094
   11      H      -1.6938419304     0.8878638420     0.8293480194
 ----------------------------------------------------------------

    7    -119.0864974206      4.12E-06 Convergence criterion met
    6    -119.1295372305      4.19E-06 Convergence criterion met
 Total energy in the final basis set = -119.12953723

                    Orbital Energies (a.u.)
 --------------------------------------------------------------

 Alpha MOs
 -- Occupied --
-10.2772 -10.2700 -10.2700  -0.8735  -0.7883  -0.6729  -0.5391  -0.5105
 -0.4955  -0.4732  -0.4270  -0.4015  -0.3983

                    Cartesian Multipole Moments
 -----------------------------------------------------------------
    Charge (ESU x 10^10)
                 0.0000
    Dipole Moment (Debye)
         X       0.0000      Y      -0.0027      Z      -0.1772
       Tot       0.1772
    Quadrupole Moments (Debye-Ang)
        XX     -21.9352     XY      -0.0000     YY     -21.4246
        XZ       0.0000     YZ      -0.0063     ZZ     -21.7912

 Total job time:  26.10s(wall), 71.15s(cpu)
        *  Thank you very much for using Q-Chem.  Have a nice day.  *
