 Q-Chem 5.3 (devel), Q-Chem, Inc., Pleasanton, CA (2020)
 Q-Chem 5.3.0 for Intel X86 EM64T Linux

User input:
--------------------------------------------------------------
$rem
   JOBTYPE  sp
   EXCHANGE   omegaB97X-D
   BASIS   6-311+G(2df,2pd)
   UNRESTRICTED   False
   max_scf_cycles   250
   geom_opt_max_cycles   1500
   basis2 6-31G*
   scf_algorithm rca_diis
   SYM_IGNORE  TRUE
   print_input   true
   geom_opt_dmax   80
   pop_mulliken false
   XC_GRID 000075000302
$end

$molecule
0 1
C       1.2784611116     -0.0189589218     0.2482672996
C       0.0076704248     0.0005163375     -0.5874881191
H       1.3093935666     -0.8992469058     0.8934340881
H       1.3018292389     0.7847414023     0.9899309228
H       2.1525146518     0.0844052347     -0.3925923689
C       -1.2555378676     0.0206194967     0.2701736846
H       -0.0243025350     -0.8731930144     -1.2427485985
H       0.0148739600     0.8741085901     -1.2436446058
H       -1.3005036447     -0.8599365473     0.9142588828
H       -2.1713340258     -0.0799141610     -0.3164321131
H       -1.3130649410     0.9668591550     0.8078859463
$end
--------------------------------------------------------------

             Standard Nuclear Orientation (Angstroms)
    I     Atom           X                Y                Z
 ----------------------------------------------------------------
    1      C       1.2784611116    -0.0189589218     0.2482672996
    2      C       0.0076704248     0.0005163375    -0.5874881191
    3      H       1.3093935666    -0.8992469058     0.8934340881
    4      H       1.3018292389     0.7847414023     0.9899309228
    5      H       2.1525146518     0.0844052347    -0.3925923689
    6      C      -1.2555378676     0.0206194967     0.2701736846
    7      H      -0.0243025350    -0.8731930144    -1.2427485985
    8      H       0.0148739600     0.8741085901    -1.2436446058
    9      H      -1.3005036447    -0.8599365473     0.9142588828
   10      H      -2.1713340258    -0.0799141610    -0.3164321131
   11      H      -1.3130649410     0.9668591550     0.8078859463
 ----------------------------------------------------------------

    7    -119.0994853609      4.71E-06 Convergence criterion met
    6    -119.1425867409      3.89E-06 Convergence criterion met
 Total energy in the final basis set = -119.14258674

                    Orbital Energies (a.u.)
 --------------------------------------------------------------

 Alpha MOs
 -- Occupied --
-10.2740 -10.2653 -10.2651  -0.8813  -0.7775  -0.6781  -0.5470  -0.5252
 -0.4827  -0.4637  -0.4205  -0.4146  -0.4051

                    Cartesian Multipole Moments
 -----------------------------------------------------------------
    Charge (ESU x 10^10)
                -0.0000
    Dipole Moment (Debye)
         X      -0.0393      Y      -0.0015      Z      -0.0820
       Tot       0.0909
    Quadrupole Moments (Debye-Ang)
        XX     -22.1823     XY       0.2591     YY     -21.3540
        XZ      -0.0051     YZ      -0.0575     ZZ     -21.8564

 Total job time:  27.76s(wall), 74.78s(cpu)
        *  Thank you very much for using Q-Chem.  Have a nice day.  *
