 Q-Chem 5.3 (devel), Q-Chem, Inc., Pleasanton, CA (2020)
 Q-Chem 5.3.0 for Intel X86 EM64T Linux

User input:
--------------------------------------------------------------
$rem
   JOBTYPE  sp
   EXCHANGE   omegaB97X-D
   BASIS   6-311+G(2df,2pd)
   UNRESTRICTED   False
   max_scf_cycles   250
   geom_opt_max_cycles   1500
   basis2 6-31G*
   scf_algorithm rca_diis
   SYM_IGNORE  TRUE
   print_input   true
   geom_opt_dmax   80
   pop_mulliken false
   XC_GRID 000075000302
$end

$molecule
0 1
C       1.2458711161     -0.1346960529     0.2486019095
C       0.0000000287     -0.2954413909     -0.6215054526
H       1.5257892984     -0.7386299435     1.1091053998
H       0.8894472700     0.8154885537     0.6647636288
H       2.1145974285     0.1507561161     -0.3439705460
C       -1.2458707735     -0.1346960635     0.2486024641
H       -0.0000000937     -0.6853469723     -1.6355015942
H       -0.0000003697     0.7949499977     -0.7589488822
H       -1.5257892995     -0.7386294139     1.1091060932
H       -2.1145967443     0.1507561386     -0.3439705140
H       -0.8894479214     0.8154896968     0.6647625124
$end
--------------------------------------------------------------

             Standard Nuclear Orientation (Angstroms)
    I     Atom           X                Y                Z
 ----------------------------------------------------------------
    1      C       1.2458711161    -0.1346960529     0.2486019095
    2      C       0.0000000287    -0.2954413909    -0.6215054526
    3      H       1.5257892984    -0.7386299435     1.1091053998
    4      H       0.8894472700     0.8154885537     0.6647636288
    5      H       2.1145974285     0.1507561161    -0.3439705460
    6      C      -1.2458707735    -0.1346960635     0.2486024641
    7      H      -0.0000000937    -0.6853469723    -1.6355015942
    8      H      -0.0000003697     0.7949499977    -0.7589488822
    9      H      -1.5257892995    -0.7386294139     1.1091060932
   10      H      -2.1145967443     0.1507561386    -0.3439705140
   11      H      -0.8894479214     0.8154896968     0.6647625124
 ----------------------------------------------------------------

    7    -119.0254958323      5.95E-06 Convergence criterion met
    6    -119.0720021863      4.03E-06 Convergence criterion met
 Total energy in the final basis set = -119.07200219

                    Orbital Energies (a.u.)
 --------------------------------------------------------------

 Alpha MOs
 -- Occupied --
-10.2804 -10.2711 -10.2711  -0.9065  -0.7788  -0.6780  -0.5676  -0.5238
 -0.4991  -0.4359  -0.4352  -0.4189  -0.3722

                    Cartesian Multipole Moments
 -----------------------------------------------------------------
    Charge (ESU x 10^10)
                -0.0000
    Dipole Moment (Debye)
         X      -0.0000      Y       0.4574      Z      -0.1218
       Tot       0.4733
    Quadrupole Moments (Debye-Ang)
        XX     -22.1920     XY      -0.0000     YY     -22.3032
        XZ      -0.0000     YZ      -0.3761     ZZ     -21.4468

 Total job time:  27.97s(wall), 75.66s(cpu)
        *  Thank you very much for using Q-Chem.  Have a nice day.  *
