 Q-Chem 5.3 (devel), Q-Chem, Inc., Pleasanton, CA (2020)
 Q-Chem 5.3.0 for Intel X86 EM64T Linux

User input:
--------------------------------------------------------------
$rem
   JOBTYPE  sp
   EXCHANGE   omegaB97X-D
   BASIS   6-311+G(2df,2pd)
   UNRESTRICTED   False
   max_scf_cycles   250
   geom_opt_max_cycles   1500
   basis2 6-31G*
   scf_algorithm rca_diis
   SYM_IGNORE  TRUE
   print_input   true
   geom_opt_dmax   80
   pop_mulliken false
   XC_GRID 000075000302
$end

$molecule
0 1
C       1.2398487177     -0.0378573736     0.3652097673
C       0.0000000901     0.0835536905     -0.6266360647
H       1.4311341870     -0.8983134576     1.0024074344
H       1.5410240944     0.8944438220     0.8460288221
H       1.9670390894     -0.0969077318     -0.4525218391
C       -1.2398488195     -0.0378574946     0.3652098733
H       -0.0000004449     -0.7825464363     -1.2964386518
H       0.0000001809     0.9762626813     -1.2581288010
H       -1.4311340899     -0.8983136520     1.0024074393
H       -1.9670388037     -0.0969069528     -0.4525220734
H       -1.5410242620     0.8944435709     0.8460291126
$end
--------------------------------------------------------------

             Standard Nuclear Orientation (Angstroms)
    I     Atom           X                Y                Z
 ----------------------------------------------------------------
    1      C       1.2398487177    -0.0378573736     0.3652097673
    2      C       0.0000000901     0.0835536905    -0.6266360647
    3      H       1.4311341870    -0.8983134576     1.0024074344
    4      H       1.5410240944     0.8944438220     0.8460288221
    5      H       1.9670390894    -0.0969077318    -0.4525218391
    6      C      -1.2398488195    -0.0378574946     0.3652098733
    7      H      -0.0000004449    -0.7825464363    -1.2964386518
    8      H       0.0000001809     0.9762626813    -1.2581288010
    9      H      -1.4311340899    -0.8983136520     1.0024074393
   10      H      -1.9670388037    -0.0969069528    -0.4525220734
   11      H      -1.5410242620     0.8944435709     0.8460291126
 ----------------------------------------------------------------

    7    -119.0578032816      4.83E-06 Convergence criterion met
    5    -119.1015918684      9.56E-06 Convergence criterion met
 Total energy in the final basis set = -119.10159187

                    Orbital Energies (a.u.)
 --------------------------------------------------------------

 Alpha MOs
 -- Occupied --
-10.2919 -10.2647 -10.2647  -0.8687  -0.7726  -0.6842  -0.5383  -0.4973
 -0.4937  -0.4665  -0.4505  -0.4166  -0.3523

                    Cartesian Multipole Moments
 -----------------------------------------------------------------
    Charge (ESU x 10^10)
                -0.0000
    Dipole Moment (Debye)
         X       0.0000      Y       0.0156      Z      -0.3169
       Tot       0.3172
    Quadrupole Moments (Debye-Ang)
        XX     -23.3531     XY      -0.0000     YY     -21.0495
        XZ       0.0000     YZ      -0.5059     ZZ     -21.1795

 Total job time:  24.01s(wall), 65.14s(cpu)
        *  Thank you very much for using Q-Chem.  Have a nice day.  *
