 Q-Chem 5.2 (devel), Q-Chem, Inc., Pleasanton, CA (2019)
 Q-Chem 5.2.2 for Intel X86 EM64T Linux

User input:
--------------------------------------------------------------
$rem
   JOBTYPE  sp
   EXCHANGE   omegaB97X-D
   BASIS   6-311+G(2df,2pd)
   max_scf_cycles   250
   geom_opt_max_cycles   1500
   basis2 6-31G*
   scf_algorithm rca_diis
   SYM_IGNORE  TRUE
   print_input   true
   geom_opt_dmax   80
   pop_mulliken false
   XC_GRID 000075000302
$end

$molecule
0 1
C       1.2765898212     -0.0409464394     0.2167696005
C       -0.0000000040     -0.0240553823     -0.6277920169
H       1.1949487161     -0.7878145702     1.0097479075
H       1.3497285216     0.7568587449     0.9661929732
H       2.1141054311     0.1090884297     -0.4581379428
C       -1.2765896277     -0.0409456685     0.2167701666
H       -0.0000005035     -0.9229716779     -1.2489793722
H       0.0000002483     0.8726571259     -1.2513277771
H       -1.1949514193     -0.7878164203     1.0097464147
H       -2.1141058279     0.1090859365     -0.4581375147
H       -1.3497254165     0.7568605876     0.9661925801
--------------------------------------------------------------

             Standard Nuclear Orientation (Angstroms)
    I     Atom           X                Y                Z
 ----------------------------------------------------------------
    1      C       1.2765898212    -0.0409464394     0.2167696005
    2      C      -0.0000000040    -0.0240553823    -0.6277920169
    3      H       1.1949487161    -0.7878145702     1.0097479075
    4      H       1.3497285216     0.7568587449     0.9661929732
    5      H       2.1141054311     0.1090884297    -0.4581379428
    6      C      -1.2765896277    -0.0409456685     0.2167701666
    7      H      -0.0000005035    -0.9229716779    -1.2489793722
    8      H       0.0000002483     0.8726571259    -1.2513277771
    9      H      -1.1949514193    -0.7878164203     1.0097464147
   10      H      -2.1141058279     0.1090859365    -0.4581375147
   11      H      -1.3497254165     0.7568605876     0.9661925801
 ----------------------------------------------------------------

    7    -119.0715771141      5.68E-06 Convergence criterion met
    6    -119.1161490065      4.20E-06 Convergence criterion met
 Total energy in the final basis set = -119.11614901

                    Orbital Energies (a.u.)
 --------------------------------------------------------------

 Alpha MOs
 -- Occupied --
-10.2756 -10.2661 -10.2661  -0.8817  -0.7793  -0.6836  -0.5481  -0.5180
 -0.5179  -0.4416  -0.4322  -0.3987  -0.3925

                    Cartesian Multipole Moments
 -----------------------------------------------------------------
    Charge (ESU x 10^10)
                -0.0000
    Dipole Moment (Debye)
         X      -0.0000      Y       0.1923      Z       0.0722
       Tot       0.2054
    Quadrupole Moments (Debye-Ang)
        XX     -22.6698     XY       0.0000     YY     -22.3787
        XZ       0.0000     YZ      -0.3154     ZZ     -20.7783

 Total job time:  49.37s(wall), 137.72s(cpu)
        *  Thank you very much for using Q-Chem.  Have a nice day.  *
