 Q-Chem 5.3 (devel), Q-Chem, Inc., Pleasanton, CA (2020)
 Q-Chem 5.3.0 for Intel X86 EM64T Linux

User input:
--------------------------------------------------------------
$rem
   JOBTYPE  sp
   EXCHANGE   omegaB97X-D
   BASIS   6-311+G(2df,2pd)
   UNRESTRICTED   False
   max_scf_cycles   250
   geom_opt_max_cycles   1500
   basis2 6-31G*
   scf_algorithm rca_diis
   SYM_IGNORE  TRUE
   print_input   true
   geom_opt_dmax   80
   pop_mulliken false
   XC_GRID 000075000302
$end

$molecule
0 1
C       1.2443548442     0.0005663710     0.2158045457
C       -0.0000003299     -0.0009474231     -0.6120814188
H       1.3972873051     -0.8348449166     0.9062798142
H       1.3901120139     0.8337037739     0.9104954130
H       2.2120958008     0.0038574269     -0.2927196514
C       -1.2443555476     0.0005661977     0.2158047382
H       0.0000002356     -0.8784225471     -1.2607729823
H       -0.0000004590     0.8728050648     -1.2658209289
H       -1.3972867411     -0.8348455795     0.9062796302
H       -2.2120955699     0.0038595722     -0.2927209699
H       -1.3901116126     0.8337027258     0.9104968290
$end
--------------------------------------------------------------

             Standard Nuclear Orientation (Angstroms)
    I     Atom           X                Y                Z
 ----------------------------------------------------------------
    1      C       1.2443548442     0.0005663710     0.2158045457
    2      C      -0.0000003299    -0.0009474231    -0.6120814188
    3      H       1.3972873051    -0.8348449166     0.9062798142
    4      H       1.3901120139     0.8337037739     0.9104954130
    5      H       2.2120958008     0.0038574269    -0.2927196514
    6      C      -1.2443555476     0.0005661977     0.2158047382
    7      H       0.0000002356    -0.8784225471    -1.2607729823
    8      H      -0.0000004590     0.8728050648    -1.2658209289
    9      H      -1.3972867411    -0.8348455795     0.9062796302
   10      H      -2.2120955699     0.0038595722    -0.2927209699
   11      H      -1.3901116126     0.8337027258     0.9104968290
 ----------------------------------------------------------------

    7    -119.0898974704      4.53E-06 Convergence criterion met
    5    -119.1338058880      9.88E-06 Convergence criterion met
 Total energy in the final basis set = -119.13380589

                    Orbital Energies (a.u.)
 --------------------------------------------------------------

 Alpha MOs
 -- Occupied --
-10.2791 -10.2638 -10.2638  -0.8871  -0.7821  -0.6909  -0.5423  -0.5263
 -0.4918  -0.4498  -0.4237  -0.4198  -0.4012

                    Cartesian Multipole Moments
 -----------------------------------------------------------------
    Charge (ESU x 10^10)
                 0.0000
    Dipole Moment (Debye)
         X       0.0000      Y      -0.0016      Z      -0.0117
       Tot       0.0118
    Quadrupole Moments (Debye-Ang)
        XX     -21.3607     XY      -0.0000     YY     -21.7784
        XZ       0.0000     YZ       0.0007     ZZ     -21.7102

 Total job time:  25.45s(wall), 68.49s(cpu)
        *  Thank you very much for using Q-Chem.  Have a nice day.  *
