 Q-Chem 5.2 (devel), Q-Chem, Inc., Pleasanton, CA (2019)
 Q-Chem 5.2.2 for Intel X86 EM64T Linux

User input:
--------------------------------------------------------------
$rem
   JOBTYPE  sp
   EXCHANGE   omegaB97X-D
   BASIS   6-311+G(2df,2pd)
   max_scf_cycles   250
   geom_opt_max_cycles   1500
   basis2 6-31G*
   scf_algorithm rca_diis
   SYM_IGNORE  TRUE
   print_input   true
   geom_opt_dmax   80
   pop_mulliken false
   XC_GRID 000075000302
$end

$molecule
0 1
C       1.2499023655     0.0010328883     0.2350869123
C       -0.0511472838     0.0000320881     -0.5856910776
H       1.3105186243     -0.8662626489     0.8979535926
H       1.3063688355     0.8671870337     0.8996656792
H       2.1658090007     -0.0017821190     -0.3581455948
C       -1.2857396987     -0.0009785581     0.2833438338
H       0.0354969617     -0.8703740106     -1.2403992379
H       0.0401017709     0.8700586257     -1.2402782143
H       -1.3028345970     -0.8946200768     0.9080030376
H       -2.1615442916     0.0020000699     -0.3650277272
H       -1.3069317482     0.8937073736     0.9065338152
--------------------------------------------------------------

             Standard Nuclear Orientation (Angstroms)
    I     Atom           X                Y                Z
 ----------------------------------------------------------------
    1      C       1.2499023655     0.0010328883     0.2350869123
    2      C      -0.0511472838     0.0000320881    -0.5856910776
    3      H       1.3105186243    -0.8662626489     0.8979535926
    4      H       1.3063688355     0.8671870337     0.8996656792
    5      H       2.1658090007    -0.0017821190    -0.3581455948
    6      C      -1.2857396987    -0.0009785581     0.2833438338
    7      H       0.0354969617    -0.8703740106    -1.2403992379
    8      H       0.0401017709     0.8700586257    -1.2402782143
    9      H      -1.3028345970    -0.8946200768     0.9080030376
   10      H      -2.1615442916     0.0020000699    -0.3650277272
   11      H      -1.3069317482     0.8937073736     0.9065338152
 ----------------------------------------------------------------

    7    -119.0998970734      4.65E-06 Convergence criterion met
    6    -119.1429388143      3.88E-06 Convergence criterion met
 Total energy in the final basis set = -119.14293881

                    Orbital Energies (a.u.)
 --------------------------------------------------------------

 Alpha MOs
 -- Occupied --
-10.2741 -10.2671 -10.2635  -0.8817  -0.7777  -0.6780  -0.5459  -0.5243
 -0.4840  -0.4639  -0.4237  -0.4111  -0.4063

                    Cartesian Multipole Moments
 -----------------------------------------------------------------
    Charge (ESU x 10^10)
                 0.0000
    Dipole Moment (Debye)
         X      -0.0182      Y      -0.0002      Z      -0.0822
       Tot       0.0842
    Quadrupole Moments (Debye-Ang)
        XX     -22.1624     XY      -0.0126     YY     -21.3811
        XZ      -0.1143     YZ       0.0004     ZZ     -21.8568

 Total job time:  48.89s(wall), 136.32s(cpu)
        *  Thank you very much for using Q-Chem.  Have a nice day.  *
