 Q-Chem 5.3 (devel), Q-Chem, Inc., Pleasanton, CA (2020)
 Q-Chem 5.3.0 for Intel X86 EM64T Linux

User input:
--------------------------------------------------------------
$rem
   JOBTYPE  sp
   EXCHANGE   omegaB97X-D
   BASIS   6-311+G(2df,2pd)
   UNRESTRICTED   False
   max_scf_cycles   250
   geom_opt_max_cycles   1500
   basis2 6-31G*
   scf_algorithm rca_diis
   SYM_IGNORE  TRUE
   print_input   true
   geom_opt_dmax   80
   pop_mulliken false
   XC_GRID 000075000302
$end

$molecule
0 1
C       1.1752771005     0.0722413948     0.3812373044
C       -0.0543984627     0.0110558217     -0.5911065891
H       1.2748117551     -0.7790205648     1.0575397567
H       1.5509246184     0.9740011625     0.8640283539
H       1.8595407058     -0.1394780645     -0.4447910725
C       -1.3407480892     -0.0581384357     0.1359923771
H       0.2418992167     -0.8365343883     -1.2136460127
H       0.0376338481     0.8966449990     -1.2243668131
H       -1.2828822003     -0.9676051629     0.7376013794
H       -2.3636209423     0.0859298573     -0.2044073697
H       -1.0984376107     0.7409040469     0.8429637046
$end
--------------------------------------------------------------

             Standard Nuclear Orientation (Angstroms)
    I     Atom           X                Y                Z
 ----------------------------------------------------------------
    1      C       1.1752771005     0.0722413948     0.3812373044
    2      C      -0.0543984627     0.0110558217    -0.5911065891
    3      H       1.2748117551    -0.7790205648     1.0575397567
    4      H       1.5509246184     0.9740011625     0.8640283539
    5      H       1.8595407058    -0.1394780645    -0.4447910725
    6      C      -1.3407480892    -0.0581384357     0.1359923771
    7      H       0.2418992167    -0.8365343883    -1.2136460127
    8      H       0.0376338481     0.8966449990    -1.2243668131
    9      H      -1.2828822003    -0.9676051629     0.7376013794
   10      H      -2.3636209423     0.0859298573    -0.2044073697
   11      H      -1.0984376107     0.7409040469     0.8429637046
 ----------------------------------------------------------------

    7    -119.0651844697      5.16E-06 Convergence criterion met
    6    -119.1095338761      4.35E-06 Convergence criterion met
 Total energy in the final basis set = -119.10953388

                    Orbital Energies (a.u.)
 --------------------------------------------------------------

 Alpha MOs
 -- Occupied --
-10.2815 -10.2675 -10.2621  -0.8904  -0.7815  -0.6784  -0.5510  -0.5352
 -0.4844  -0.4659  -0.4162  -0.4023  -0.3993

                    Cartesian Multipole Moments
 -----------------------------------------------------------------
    Charge (ESU x 10^10)
                -0.0000
    Dipole Moment (Debye)
         X       0.1091      Y       0.0285      Z      -0.0980
       Tot       0.1494
    Quadrupole Moments (Debye-Ang)
        XX     -22.0538     XY      -0.0063     YY     -21.4180
        XZ       0.0687     YZ      -0.0984     ZZ     -22.1270

 Total job time:  27.41s(wall), 74.66s(cpu)
        *  Thank you very much for using Q-Chem.  Have a nice day.  *
