 Q-Chem 5.3 (devel), Q-Chem, Inc., Pleasanton, CA (2020)
 Q-Chem 5.3.0 for Intel X86 EM64T Linux

User input:
--------------------------------------------------------------
$rem
   JOBTYPE  sp
   EXCHANGE   omegaB97X-D
   BASIS   6-311+G(2df,2pd)
   UNRESTRICTED   False
   max_scf_cycles   250
   geom_opt_max_cycles   1500
   basis2 6-31G*
   scf_algorithm rca_diis
   SYM_IGNORE  TRUE
   print_input   true
   geom_opt_dmax   80
   pop_mulliken false
   XC_GRID 000075000302
$end

$molecule
0 1
C       1.2654519386     0.0168422434     0.2641793165
C       -0.0000000389     -0.0120713683     -0.5933749273
H       1.2527353519     -0.8583592138     0.9185065842
H       1.3773375680     0.8947231926     0.9019977682
H       2.1485500027     -0.0758261666     -0.3690303488
C       -1.2654520171     0.0168422547     0.2641793052
H       -0.0000002158     -0.8434333388     -1.3022237384
H       0.0000001943     0.9007448922     -1.1946629061
H       -1.2527354150     -0.8583591980     0.9185065554
H       -2.1485500749     -0.0758258080     -0.3690304127
H       -1.3773373544     0.8947231766     0.9019978228
$end
--------------------------------------------------------------

             Standard Nuclear Orientation (Angstroms)
    I     Atom           X                Y                Z
 ----------------------------------------------------------------
    1      C       1.2654519386     0.0168422434     0.2641793165
    2      C      -0.0000000389    -0.0120713683    -0.5933749273
    3      H       1.2527353519    -0.8583592138     0.9185065842
    4      H       1.3773375680     0.8947231926     0.9019977682
    5      H       2.1485500027    -0.0758261666    -0.3690303488
    6      C      -1.2654520171     0.0168422547     0.2641793052
    7      H      -0.0000002158    -0.8434333388    -1.3022237384
    8      H       0.0000001943     0.9007448922    -1.1946629061
    9      H      -1.2527354150    -0.8583591980     0.9185065554
   10      H      -2.1485500749    -0.0758258080    -0.3690304127
   11      H      -1.3773373544     0.8947231766     0.9019978228
 ----------------------------------------------------------------

    7    -119.1003556035      4.65E-06 Convergence criterion met
    5    -119.1433036875      9.84E-06 Convergence criterion met
 Total energy in the final basis set = -119.14330369

                    Orbital Energies (a.u.)
 --------------------------------------------------------------

 Alpha MOs
 -- Occupied --
-10.2755 -10.2650 -10.2650  -0.8802  -0.7765  -0.6785  -0.5445  -0.5228
 -0.4861  -0.4612  -0.4259  -0.4138  -0.4024

                    Cartesian Multipole Moments
 -----------------------------------------------------------------
    Charge (ESU x 10^10)
                 0.0000
    Dipole Moment (Debye)
         X       0.0000      Y       0.0012      Z      -0.0910
       Tot       0.0911
    Quadrupole Moments (Debye-Ang)
        XX     -22.2805     XY       0.0000     YY     -21.3833
        XZ       0.0000     YZ       0.3352     ZZ     -21.7322

 Total job time:  25.21s(wall), 67.42s(cpu)
        *  Thank you very much for using Q-Chem.  Have a nice day.  *
