 Q-Chem 5.3 (devel), Q-Chem, Inc., Pleasanton, CA (2020)
 Q-Chem 5.3.0 for Intel X86 EM64T Linux

User input:
--------------------------------------------------------------
$rem
   JOBTYPE  sp
   EXCHANGE   omegaB97X-D
   BASIS   6-311+G(2df,2pd)
   UNRESTRICTED   False
   max_scf_cycles   250
   geom_opt_max_cycles   1500
   basis2 6-31G*
   scf_algorithm rca_diis
   SYM_IGNORE  TRUE
   print_input   true
   geom_opt_dmax   80
   pop_mulliken false
   XC_GRID 000075000302
$end

$molecule
0 1
C       1.2692193679     0.0009844977     0.2786761642
C       0.0000002828     -0.0018505980     -0.5372950546
H       1.3097536791     -0.8907156720     0.9288279081
H       1.3022343244     0.8879872841     0.9341249615
H       2.1322980450     0.0066728551     -0.3132057518
C       -1.2692186367     0.0009846543     0.2786757882
H       0.0000003326     -1.1075425803     -1.3849973126
H       0.0000003546     1.0995354772     -1.3935104057
H       -1.3097534385     -0.8907191554     0.9288302637
H       -2.1323004154     0.0066736377     -0.3132082003
H       -1.3022339563     0.8879902655     0.9341266582
$end
--------------------------------------------------------------

             Standard Nuclear Orientation (Angstroms)
    I     Atom           X                Y                Z
 ----------------------------------------------------------------
    1      C       1.2692193679     0.0009844977     0.2786761642
    2      C       0.0000002828    -0.0018505980    -0.5372950546
    3      H       1.3097536791    -0.8907156720     0.9288279081
    4      H       1.3022343244     0.8879872841     0.9341249615
    5      H       2.1322980450     0.0066728551    -0.3132057518
    6      C      -1.2692186367     0.0009846543     0.2786757882
    7      H       0.0000003326    -1.1075425803    -1.3849973126
    8      H       0.0000003546     1.0995354772    -1.3935104057
    9      H      -1.3097534385    -0.8907191554     0.9288302637
   10      H      -2.1323004154     0.0066736377    -0.3132082003
   11      H      -1.3022339563     0.8879902655     0.9341266582
 ----------------------------------------------------------------

    7    -119.0369058077      5.43E-06 Convergence criterion met
    6    -119.0792294967      3.96E-06 Convergence criterion met
 Total energy in the final basis set = -119.07922950

                    Orbital Energies (a.u.)
 --------------------------------------------------------------

 Alpha MOs
 -- Occupied --
-10.3307 -10.2699 -10.2699  -0.8803  -0.7883  -0.6475  -0.5334  -0.5306
 -0.4890  -0.4667  -0.4372  -0.4021  -0.3726

                    Cartesian Multipole Moments
 -----------------------------------------------------------------
    Charge (ESU x 10^10)
                 0.0000
    Dipole Moment (Debye)
         X       0.0000      Y      -0.0006      Z       0.4315
       Tot       0.4315
    Quadrupole Moments (Debye-Ang)
        XX     -21.7193     XY      -0.0000     YY     -21.9120
        XZ       0.0000     YZ       0.0007     ZZ     -22.8769

 Total job time:  27.12s(wall), 74.05s(cpu)
        *  Thank you very much for using Q-Chem.  Have a nice day.  *
