 Q-Chem 5.2 (devel), Q-Chem, Inc., Pleasanton, CA (2019)
 Q-Chem 5.2.2 for Intel X86 EM64T Linux

User input:
--------------------------------------------------------------
$rem
   JOBTYPE  sp
   EXCHANGE   omegaB97X-D
   BASIS   6-311+G(2df,2pd)
   max_scf_cycles   250
   geom_opt_max_cycles   1500
   basis2 6-31G*
   scf_algorithm rca_diis
   SYM_IGNORE  TRUE
   print_input   true
   geom_opt_dmax   80
   pop_mulliken false
   XC_GRID 000075000302
$end

$molecule
0 1
C       1.2633381960     0.0008622325     0.2758922916
C       -0.0000000653     0.0006789589     -0.5747330970
H       1.3037149382     -0.8606250145     0.9023413980
H       1.3035405423     0.8590027306     0.9001344906
H       2.2130460502     0.0005553381     -0.3825171722
C       -1.2633386383     0.0008622702     0.2758918434
H       0.0000000467     -0.8824627154     -1.2384996053
H       -0.0000000994     0.8821929919     -1.2374249877
H       -1.3037154061     -0.8606256237     0.9023416115
H       -2.2130445574     0.0005559177     -0.3825164748
H       -1.3035410675     0.8590035798     0.9001347209
--------------------------------------------------------------

             Standard Nuclear Orientation (Angstroms)
    I     Atom           X                Y                Z
 ----------------------------------------------------------------
    1      C       1.2633381960     0.0008622325     0.2758922916
    2      C      -0.0000000653     0.0006789589    -0.5747330970
    3      H       1.3037149382    -0.8606250145     0.9023413980
    4      H       1.3035405423     0.8590027306     0.9001344906
    5      H       2.2130460502     0.0005553381    -0.3825171722
    6      C      -1.2633386383     0.0008622702     0.2758918434
    7      H       0.0000000467    -0.8824627154    -1.2384996053
    8      H      -0.0000000994     0.8821929919    -1.2374249877
    9      H      -1.3037154061    -0.8606256237     0.9023416115
   10      H      -2.2130445574     0.0005559177    -0.3825164748
   11      H      -1.3035410675     0.8590035798     0.9001347209
 ----------------------------------------------------------------

    7    -119.0965308618      4.27E-06 Convergence criterion met
    6    -119.1394545937      3.79E-06 Convergence criterion met
 Total energy in the final basis set = -119.13945459

                    Orbital Energies (a.u.)
 --------------------------------------------------------------

 Alpha MOs
 -- Occupied --
-10.2765 -10.2664 -10.2664  -0.8818  -0.7766  -0.6781  -0.5488  -0.5149
 -0.4837  -0.4714  -0.4174  -0.4118  -0.4093

                    Cartesian Multipole Moments
 -----------------------------------------------------------------
    Charge (ESU x 10^10)
                 0.0000
    Dipole Moment (Debye)
         X      -0.0000      Y       0.0052      Z       0.0263
       Tot       0.0268
    Quadrupole Moments (Debye-Ang)
        XX     -22.4094     XY      -0.0000     YY     -21.3880
        XZ       0.0000     YZ       0.0008     ZZ     -21.7936

 Total job time:  47.99s(wall), 133.99s(cpu)
        *  Thank you very much for using Q-Chem.  Have a nice day.  *
