 Q-Chem 5.3 (devel), Q-Chem, Inc., Pleasanton, CA (2020)
 Q-Chem 5.3.0 for Intel X86 EM64T Linux

User input:
--------------------------------------------------------------
$rem
   JOBTYPE  sp
   EXCHANGE   omegaB97X-D
   BASIS   6-311+G(2df,2pd)
   UNRESTRICTED   False
   max_scf_cycles   250
   geom_opt_max_cycles   1500
   basis2 6-31G*
   scf_algorithm rca_diis
   SYM_IGNORE  TRUE
   print_input   true
   geom_opt_dmax   80
   pop_mulliken false
   XC_GRID 000075000302
$end

$molecule
0 1
C       1.3022962548     -0.0011035898     0.2598890751
C       -0.0000000108     0.0033818379     -0.5391471202
H       1.3784327405     -0.8805906741     0.9021200042
H       1.3892689385     0.8826625070     0.8949054751
H       2.1574837948     -0.0084324718     -0.4174153965
C       -1.3022963069     -0.0011036764     0.2598890172
H       0.0000001103     -0.8652280977     -1.2026139257
H       -0.0000001088     0.8767748445     -1.1961922059
H       -1.3784328000     -0.8805907384     0.9021199525
H       -2.1574838849     -0.0084316580     -0.4174153689
H       -1.3892687881     0.8826623829     0.8949055120
$end
--------------------------------------------------------------

             Standard Nuclear Orientation (Angstroms)
    I     Atom           X                Y                Z
 ----------------------------------------------------------------
    1      C       1.3022962548    -0.0011035898     0.2598890751
    2      C      -0.0000000108     0.0033818379    -0.5391471202
    3      H       1.3784327405    -0.8805906741     0.9021200042
    4      H       1.3892689385     0.8826625070     0.8949054751
    5      H       2.1574837948    -0.0084324718    -0.4174153965
    6      C      -1.3022963069    -0.0011036764     0.2598890172
    7      H       0.0000001103    -0.8652280977    -1.2026139257
    8      H      -0.0000001088     0.8767748445    -1.1961922059
    9      H      -1.3784328000    -0.8805907384     0.9021199525
   10      H      -2.1574838849    -0.0084316580    -0.4174153689
   11      H      -1.3892687881     0.8826623829     0.8949055120
 ----------------------------------------------------------------

    7    -119.1024022326      4.38E-06 Convergence criterion met
    6    -119.1452754428      4.01E-06 Convergence criterion met
 Total energy in the final basis set = -119.14527544

                    Orbital Energies (a.u.)
 --------------------------------------------------------------

 Alpha MOs
 -- Occupied --
-10.2745 -10.2659 -10.2659  -0.8785  -0.7800  -0.6763  -0.5438  -0.5209
 -0.4859  -0.4662  -0.4212  -0.4136  -0.4058

                    Cartesian Multipole Moments
 -----------------------------------------------------------------
    Charge (ESU x 10^10)
                 0.0000
    Dipole Moment (Debye)
         X       0.0000      Y       0.0003      Z      -0.0976
       Tot       0.0976
    Quadrupole Moments (Debye-Ang)
        XX     -22.1111     XY      -0.0000     YY     -21.3791
        XZ       0.0000     YZ      -0.0010     ZZ     -21.8240

 Total job time:  27.07s(wall), 73.20s(cpu)
        *  Thank you very much for using Q-Chem.  Have a nice day.  *
