 Q-Chem 5.3 (devel), Q-Chem, Inc., Pleasanton, CA (2020)
 Q-Chem 5.3.0 for Intel X86 EM64T Linux

User input:
--------------------------------------------------------------
$rem
   JOBTYPE  sp
   EXCHANGE   omegaB97X-D
   BASIS   6-311+G(2df,2pd)
   UNRESTRICTED   False
   max_scf_cycles   250
   geom_opt_max_cycles   1500
   basis2 6-31G*
   scf_algorithm rca_diis
   SYM_IGNORE  TRUE
   print_input   true
   geom_opt_dmax   80
   pop_mulliken false
   XC_GRID 000075000302
$end

$molecule
0 1
C       1.3096693446     0.0097122126     0.3247041677
C       0.1549442294     0.0011996227     -0.6030024269
H       1.2517836324     -0.8810831510     0.9460365318
H       1.3066935095     0.9524300694     0.8676290853
H       2.1480498406     -0.0294433589     -0.3678481009
C       -1.2022560579     -0.0033150833     0.1799335729
H       -0.1009051164     -0.8710063625     -1.2092652315
H       -0.1275208967     0.8621665194     -1.2134990645
H       -1.3163504827     -0.8724420844     0.8380113975
H       -2.1581323729     0.0355408407     -0.3482734800
H       -1.2659756905     0.7962414414     0.9266185675
$end
--------------------------------------------------------------

             Standard Nuclear Orientation (Angstroms)
    I     Atom           X                Y                Z
 ----------------------------------------------------------------
    1      C       1.3096693446     0.0097122126     0.3247041677
    2      C       0.1549442294     0.0011996227    -0.6030024269
    3      H       1.2517836324    -0.8810831510     0.9460365318
    4      H       1.3066935095     0.9524300694     0.8676290853
    5      H       2.1480498406    -0.0294433589    -0.3678481009
    6      C      -1.2022560579    -0.0033150833     0.1799335729
    7      H      -0.1009051164    -0.8710063625    -1.2092652315
    8      H      -0.1275208967     0.8621665194    -1.2134990645
    9      H      -1.3163504827    -0.8724420844     0.8380113975
   10      H      -2.1581323729     0.0355408407    -0.3482734800
   11      H      -1.2659756905     0.7962414414     0.9266185675
 ----------------------------------------------------------------

    7    -119.0731341311      5.84E-06 Convergence criterion met
    5    -119.1172125065      8.99E-06 Convergence criterion met
 Total energy in the final basis set = -119.11721251

                    Orbital Energies (a.u.)
 --------------------------------------------------------------

 Alpha MOs
 -- Occupied --
-10.2753 -10.2707 -10.2615  -0.8880  -0.7807  -0.6798  -0.5514  -0.5249
 -0.4923  -0.4651  -0.4284  -0.4009  -0.3911

                    Cartesian Multipole Moments
 -----------------------------------------------------------------
    Charge (ESU x 10^10)
                -0.0000
    Dipole Moment (Debye)
         X       0.0084      Y      -0.0013      Z      -0.0279
       Tot       0.0291
    Quadrupole Moments (Debye-Ang)
        XX     -22.2219     XY       0.0310     YY     -21.4240
        XZ       0.3165     YZ      -0.0002     ZZ     -22.1009

 Total job time:  25.64s(wall), 68.50s(cpu)
        *  Thank you very much for using Q-Chem.  Have a nice day.  *
