 Q-Chem 5.3 (devel), Q-Chem, Inc., Pleasanton, CA (2020)
 Q-Chem 5.3.0 for Intel X86 EM64T Linux

User input:
--------------------------------------------------------------
$rem
   JOBTYPE  sp
   EXCHANGE   omegaB97X-D
   BASIS   6-311+G(2df,2pd)
   UNRESTRICTED   False
   max_scf_cycles   250
   geom_opt_max_cycles   1500
   basis2 6-31G*
   scf_algorithm rca_diis
   SYM_IGNORE  TRUE
   print_input   true
   geom_opt_dmax   80
   pop_mulliken false
   XC_GRID 000075000302
$end

$molecule
0 1
C       1.2142728732     -0.0046260619     0.2612878544
C       0.0000000287     0.0054626014     -0.5212387254
H       1.2941292623     -0.8817686749     0.9054332243
H       1.3144220115     0.8879008977     0.8814818984
H       2.0496145994     -0.0197559006     -0.4385901416
C       -1.2142726699     -0.0046258456     0.2612881387
H       -0.0000004861     -0.8572548646     -1.1918579083
H       -0.0000000494     0.8882912880     -1.1650841505
H       -1.2941290871     -0.8817684200     0.9054335233
H       -2.0496139698     -0.0197557377     -0.4385903891
H       -1.3144225733     0.8879013842     0.8814816946
$end
--------------------------------------------------------------

             Standard Nuclear Orientation (Angstroms)
    I     Atom           X                Y                Z
 ----------------------------------------------------------------
    1      C       1.2142728732    -0.0046260619     0.2612878544
    2      C       0.0000000287     0.0054626014    -0.5212387254
    3      H       1.2941292623    -0.8817686749     0.9054332243
    4      H       1.3144220115     0.8879008977     0.8814818984
    5      H       2.0496145994    -0.0197559006    -0.4385901416
    6      C      -1.2142726699    -0.0046258456     0.2612881387
    7      H      -0.0000004861    -0.8572548646    -1.1918579083
    8      H      -0.0000000494     0.8882912880    -1.1650841505
    9      H      -1.2941290871    -0.8817684200     0.9054335233
   10      H      -2.0496139698    -0.0197557377    -0.4385903891
   11      H      -1.3144225733     0.8879013842     0.8814816946
 ----------------------------------------------------------------

    7    -119.0926975220      4.67E-06 Convergence criterion met
    6    -119.1368161790      3.38E-06 Convergence criterion met
 Total energy in the final basis set = -119.13681618

                    Orbital Energies (a.u.)
 --------------------------------------------------------------

 Alpha MOs
 -- Occupied --
-10.2606 -10.2576 -10.2575  -0.9043  -0.7842  -0.6706  -0.5590  -0.5337
 -0.4970  -0.4651  -0.4183  -0.4141  -0.3990

                    Cartesian Multipole Moments
 -----------------------------------------------------------------
    Charge (ESU x 10^10)
                -0.0000
    Dipole Moment (Debye)
         X      -0.0000      Y       0.0062      Z      -0.1407
       Tot       0.1408
    Quadrupole Moments (Debye-Ang)
        XX     -22.5876     XY      -0.0000     YY     -21.1974
        XZ       0.0000     YZ      -0.0104     ZZ     -21.7461

 Total job time:  27.60s(wall), 74.89s(cpu)
        *  Thank you very much for using Q-Chem.  Have a nice day.  *
