 Q-Chem 5.3 (devel), Q-Chem, Inc., Pleasanton, CA (2020)
 Q-Chem 5.3.0 for Intel X86 EM64T Linux

User input:
--------------------------------------------------------------
$rem
   JOBTYPE  sp
   EXCHANGE   omegaB97X-D
   BASIS   6-311+G(2df,2pd)
   UNRESTRICTED   False
   max_scf_cycles   250
   geom_opt_max_cycles   1500
   basis2 6-31G*
   scf_algorithm rca_diis
   SYM_IGNORE  TRUE
   print_input   true
   geom_opt_dmax   80
   pop_mulliken false
   XC_GRID 000075000302
$end

$molecule
0 1
C       1.2786036363     -0.0003272121     0.2836330273
C       0.0000002015     0.0003149265     -0.5725187561
H       1.2540042621     -0.9002856599     0.8990270965
H       1.2572795239     0.9008816738     0.8973567667
H       2.1323242868     -0.0015733720     -0.3925944699
C       -1.2786032237     -0.0003271390     0.2836329135
H       -0.0000000812     -0.8718447468     -1.2317548912
H       0.0000001831     0.8741388137     -1.2295262372
H       -1.2540045912     -0.9002853945     0.8990272910
H       -2.1323245251     -0.0015733868     -0.3925938561
H       -1.2572797331     0.9008821633     0.8973561344
$end
--------------------------------------------------------------

             Standard Nuclear Orientation (Angstroms)
    I     Atom           X                Y                Z
 ----------------------------------------------------------------
    1      C       1.2786036363    -0.0003272121     0.2836330273
    2      C       0.0000002015     0.0003149265    -0.5725187561
    3      H       1.2540042621    -0.9002856599     0.8990270965
    4      H       1.2572795239     0.9008816738     0.8973567667
    5      H       2.1323242868    -0.0015733720    -0.3925944699
    6      C      -1.2786032237    -0.0003271390     0.2836329135
    7      H      -0.0000000812    -0.8718447468    -1.2317548912
    8      H       0.0000001831     0.8741388137    -1.2295262372
    9      H      -1.2540045912    -0.9002853945     0.8990272910
   10      H      -2.1323245251    -0.0015733868    -0.3925938561
   11      H      -1.2572797331     0.9008821633     0.8973561344
 ----------------------------------------------------------------

    7    -119.0997010649      4.77E-06 Convergence criterion met
    6    -119.1426624552      4.13E-06 Convergence criterion met
 Total energy in the final basis set = -119.14266246

                    Orbital Energies (a.u.)
 --------------------------------------------------------------

 Alpha MOs
 -- Occupied --
-10.2723 -10.2660 -10.2660  -0.8799  -0.7760  -0.6721  -0.5490  -0.5247
 -0.4827  -0.4699  -0.4145  -0.4108  -0.4097

                    Cartesian Multipole Moments
 -----------------------------------------------------------------
    Charge (ESU x 10^10)
                -0.0000
    Dipole Moment (Debye)
         X      -0.0000      Y       0.0010      Z      -0.1419
       Tot       0.1419
    Quadrupole Moments (Debye-Ang)
        XX     -22.6549     XY       0.0000     YY     -21.1845
        XZ      -0.0000     YZ       0.0010     ZZ     -21.9410

 Total job time:  27.96s(wall), 75.84s(cpu)
        *  Thank you very much for using Q-Chem.  Have a nice day.  *
