 Q-Chem 5.3 (devel), Q-Chem, Inc., Pleasanton, CA (2020)
 Q-Chem 5.3.0 for Intel X86 EM64T Linux

User input:
--------------------------------------------------------------
$rem
   JOBTYPE  sp
   EXCHANGE   omegaB97X-D
   BASIS   6-311+G(2df,2pd)
   UNRESTRICTED   False
   max_scf_cycles   250
   geom_opt_max_cycles   1500
   basis2 6-31G*
   scf_algorithm rca_diis
   SYM_IGNORE  TRUE
   print_input   true
   geom_opt_dmax   80
   pop_mulliken false
   XC_GRID 000075000302
$end

$molecule
0 1
C       1.2628384924     0.0345812776     0.2667541269
C       -0.0000000821     -0.0253265121     -0.6016838651
H       1.1979972200     -0.8328636482     0.9298743209
H       1.4418630501     0.9029494228     0.9005719882
H       2.1287255481     -0.1460804130     -0.3714361420
C       -1.2628386667     0.0345813076     0.2667540909
H       -0.0000004227     -0.8127427660     -1.3589669590
H       0.0000004548     0.9208965950     -1.1498326559
H       -1.1979973534     -0.8328636299     0.9298742435
H       -2.1287256696     -0.1460803769     -0.3714362377
H       -1.4418626315     0.9029494090     0.9005721082
$end
--------------------------------------------------------------

             Standard Nuclear Orientation (Angstroms)
    I     Atom           X                Y                Z
 ----------------------------------------------------------------
    1      C       1.2628384924     0.0345812776     0.2667541269
    2      C      -0.0000000821    -0.0253265121    -0.6016838651
    3      H       1.1979972200    -0.8328636482     0.9298743209
    4      H       1.4418630501     0.9029494228     0.9005719882
    5      H       2.1287255481    -0.1460804130    -0.3714361420
    6      C      -1.2628386667     0.0345813076     0.2667540909
    7      H      -0.0000004227    -0.8127427660    -1.3589669590
    8      H       0.0000004548     0.9208965950    -1.1498326559
    9      H      -1.1979973534    -0.8328636299     0.9298742435
   10      H      -2.1287256696    -0.1460803769    -0.3714362377
   11      H      -1.4418626315     0.9029494090     0.9005721082
 ----------------------------------------------------------------

    7    -119.0920880788      5.03E-06 Convergence criterion met
    5    -119.1352804569      9.64E-06 Convergence criterion met
 Total energy in the final basis set = -119.13528046

                    Orbital Energies (a.u.)
 --------------------------------------------------------------

 Alpha MOs
 -- Occupied --
-10.2770 -10.2652 -10.2652  -0.8801  -0.7762  -0.6795  -0.5437  -0.5225
 -0.4909  -0.4567  -0.4356  -0.4090  -0.3935

                    Cartesian Multipole Moments
 -----------------------------------------------------------------
    Charge (ESU x 10^10)
                -0.0000
    Dipole Moment (Debye)
         X       0.0000      Y       0.0034      Z      -0.1009
       Tot       0.1010
    Quadrupole Moments (Debye-Ang)
        XX     -22.3832     XY       0.0000     YY     -21.4212
        XZ       0.0000     YZ       0.6574     ZZ     -21.6438

 Total job time:  24.86s(wall), 66.87s(cpu)
        *  Thank you very much for using Q-Chem.  Have a nice day.  *
