 Q-Chem 5.3 (devel), Q-Chem, Inc., Pleasanton, CA (2020)
 Q-Chem 5.3.0 for Intel X86 EM64T Linux

User input:
--------------------------------------------------------------
$rem
   JOBTYPE  sp
   EXCHANGE   omegaB97X-D
   BASIS   6-311+G(2df,2pd)
   UNRESTRICTED   False
   max_scf_cycles   250
   geom_opt_max_cycles   1500
   basis2 6-31G*
   scf_algorithm rca_diis
   SYM_IGNORE  TRUE
   print_input   true
   geom_opt_dmax   80
   pop_mulliken false
   XC_GRID 000075000302
$end

$molecule
0 1
C       1.2673129772     -0.0591234874     0.2566904369
C       -0.0024235911     -0.0010651497     -0.5861956774
H       1.3287441747     -0.9190880932     0.9262278439
H       1.2805592209     0.8349349261     0.8842408485
H       2.1621847104     0.0012976742     -0.3632892296
C       -1.2673215967     0.0592709709     0.2598410351
H       0.1701771321     -0.8599719433     -1.2390699294
H       -0.1631906193     0.8577849541     -1.2421584569
H       -1.2841577028     -0.8411844080     0.8776226655
H       -2.1656521597     0.0032617804     -0.3560233849
H       -1.3262326063     0.9238834420     0.9231588673
$end
--------------------------------------------------------------

             Standard Nuclear Orientation (Angstroms)
    I     Atom           X                Y                Z
 ----------------------------------------------------------------
    1      C       1.2673129772    -0.0591234874     0.2566904369
    2      C      -0.0024235911    -0.0010651497    -0.5861956774
    3      H       1.3287441747    -0.9190880932     0.9262278439
    4      H       1.2805592209     0.8349349261     0.8842408485
    5      H       2.1621847104     0.0012976742    -0.3632892296
    6      C      -1.2673215967     0.0592709709     0.2598410351
    7      H       0.1701771321    -0.8599719433    -1.2390699294
    8      H      -0.1631906193     0.8577849541    -1.2421584569
    9      H      -1.2841577028    -0.8411844080     0.8776226655
   10      H      -2.1656521597     0.0032617804    -0.3560233849
   11      H      -1.3262326063     0.9238834420     0.9231588673
 ----------------------------------------------------------------

    7    -119.0906618220      4.96E-06 Convergence criterion met
    6    -119.1340161717      4.03E-06 Convergence criterion met
 Total energy in the final basis set = -119.13401617

                    Orbital Energies (a.u.)
 --------------------------------------------------------------

 Alpha MOs
 -- Occupied --
-10.2739 -10.2660 -10.2658  -0.8825  -0.7788  -0.6778  -0.5467  -0.5251
 -0.4888  -0.4663  -0.4275  -0.4139  -0.3892

                    Cartesian Multipole Moments
 -----------------------------------------------------------------
    Charge (ESU x 10^10)
                -0.0000
    Dipole Moment (Debye)
         X      -0.0034      Y       0.0009      Z      -0.0675
       Tot       0.0676
    Quadrupole Moments (Debye-Ang)
        XX     -22.0911     XY      -0.4699     YY     -21.4385
        XZ      -0.0162     YZ      -0.0034     ZZ     -21.9020

 Total job time:  27.24s(wall), 73.94s(cpu)
        *  Thank you very much for using Q-Chem.  Have a nice day.  *
