 Q-Chem 5.3 (devel), Q-Chem, Inc., Pleasanton, CA (2020)
 Q-Chem 5.3.0 for Intel X86 EM64T Linux

User input:
--------------------------------------------------------------
$rem
   JOBTYPE  sp
   EXCHANGE   omegaB97X-D
   BASIS   6-311+G(2df,2pd)
   UNRESTRICTED   False
   max_scf_cycles   250
   geom_opt_max_cycles   1500
   basis2 6-31G*
   scf_algorithm rca_diis
   SYM_IGNORE  TRUE
   print_input   true
   geom_opt_dmax   80
   pop_mulliken false
   XC_GRID 000075000302
$end

$molecule
0 1
C       1.2766581437     -0.0086773805     0.2118323471
C       0.0000000154     -0.0872549760     -0.6291318724
H       1.3077907805     -0.8297723325     0.9316421129
H       1.2473071240     0.7184602306     1.0327387299
H       2.0770051427     0.3220122968     -0.4435552382
C       -1.2766576915     -0.0086761221     0.2118331167
H       -0.0000007689     -1.0502713321     -1.1453911799
H       0.0000003846     0.7334792797     -1.3497465436
H       -1.3077918260     -0.8297706917     0.9316433768
H       -2.0770065431     0.3220065190     -0.4435559055
H       -1.2473048221     0.7184651748     1.0327360750
$end
--------------------------------------------------------------

             Standard Nuclear Orientation (Angstroms)
    I     Atom           X                Y                Z
 ----------------------------------------------------------------
    1      C       1.2766581437    -0.0086773805     0.2118323471
    2      C       0.0000000154    -0.0872549760    -0.6291318724
    3      H       1.3077907805    -0.8297723325     0.9316421129
    4      H       1.2473071240     0.7184602306     1.0327387299
    5      H       2.0770051427     0.3220122968    -0.4435552382
    6      C      -1.2766576915    -0.0086761221     0.2118331167
    7      H      -0.0000007689    -1.0502713321    -1.1453911799
    8      H       0.0000003846     0.7334792797    -1.3497465436
    9      H      -1.3077918260    -0.8297706917     0.9316433768
   10      H      -2.0770065431     0.3220065190    -0.4435559055
   11      H      -1.2473048221     0.7184651748     1.0327360750
 ----------------------------------------------------------------

    7    -119.0695072065      5.49E-06 Convergence criterion met
    5    -119.1141078983      9.92E-06 Convergence criterion met
 Total energy in the final basis set = -119.11410790

                    Orbital Energies (a.u.)
 --------------------------------------------------------------

 Alpha MOs
 -- Occupied --
-10.2757 -10.2654 -10.2654  -0.8815  -0.7789  -0.6834  -0.5535  -0.5173
 -0.5084  -0.4499  -0.4322  -0.3955  -0.3900

                    Cartesian Multipole Moments
 -----------------------------------------------------------------
    Charge (ESU x 10^10)
                 0.0000
    Dipole Moment (Debye)
         X      -0.0000      Y       0.1570      Z       0.1016
       Tot       0.1870
    Quadrupole Moments (Debye-Ang)
        XX     -23.0084     XY       0.0000     YY     -22.0543
        XZ       0.0000     YZ      -0.6455     ZZ     -20.8522

 Total job time:  25.14s(wall), 67.82s(cpu)
        *  Thank you very much for using Q-Chem.  Have a nice day.  *
