 Q-Chem 5.3 (devel), Q-Chem, Inc., Pleasanton, CA (2020)
 Q-Chem 5.3.0 for Intel X86 EM64T Linux

User input:
--------------------------------------------------------------
$rem
   JOBTYPE  sp
   EXCHANGE   omegaB97X-D
   BASIS   6-311+G(2df,2pd)
   UNRESTRICTED   False
   max_scf_cycles   250
   geom_opt_max_cycles   1500
   basis2 6-31G*
   scf_algorithm rca_diis
   SYM_IGNORE  TRUE
   print_input   true
   geom_opt_dmax   80
   pop_mulliken false
   XC_GRID 000075000302
$end

$molecule
0 1
C       1.3665187554     -0.0030801806     0.2613146587
C       -0.0000000303     0.0098306209     -0.4390213221
H       1.5185290551     -0.8807853273     0.8917436311
H       1.5483656806     0.8858014973     0.8679680158
H       2.1264053399     -0.0243682881     -0.5224570544
C       -1.3665188963     -0.0030804149     0.2613144713
H       0.0000003273     -0.8472770805     -1.1186302704
H       -0.0000001995     0.8823114569     -1.0984417590
H       -1.5185292274     -0.8807855390     0.8917434468
H       -2.1264056346     -0.0243672006     -0.5224570056
H       -1.5483652307     0.8858011219     0.8679682066
$end
--------------------------------------------------------------

             Standard Nuclear Orientation (Angstroms)
    I     Atom           X                Y                Z
 ----------------------------------------------------------------
    1      C       1.3665187554    -0.0030801806     0.2613146587
    2      C      -0.0000000303     0.0098306209    -0.4390213221
    3      H       1.5185290551    -0.8807853273     0.8917436311
    4      H       1.5483656806     0.8858014973     0.8679680158
    5      H       2.1264053399    -0.0243682881    -0.5224570544
    6      C      -1.3665188963    -0.0030804149     0.2613144713
    7      H       0.0000003273    -0.8472770805    -1.1186302704
    8      H      -0.0000001995     0.8823114569    -1.0984417590
    9      H      -1.5185292274    -0.8807855390     0.8917434468
   10      H      -2.1264056346    -0.0243672006    -0.5224570056
   11      H      -1.5483652307     0.8858011219     0.8679682066
 ----------------------------------------------------------------

    7    -119.0967668208      4.19E-06 Convergence criterion met
    6    -119.1396602933      4.15E-06 Convergence criterion met
 Total energy in the final basis set = -119.13966029

                    Orbital Energies (a.u.)
 --------------------------------------------------------------

 Alpha MOs
 -- Occupied --
-10.2757 -10.2677 -10.2677  -0.8750  -0.7846  -0.6743  -0.5409  -0.5152
 -0.4912  -0.4702  -0.4249  -0.4062  -0.4030

                    Cartesian Multipole Moments
 -----------------------------------------------------------------
    Charge (ESU x 10^10)
                 0.0000
    Dipole Moment (Debye)
         X       0.0000      Y      -0.0006      Z      -0.1292
       Tot       0.1292
    Quadrupole Moments (Debye-Ang)
        XX     -22.0247     XY      -0.0000     YY     -21.4035
        XZ       0.0000     YZ      -0.0027     ZZ     -21.7913

 Total job time:  26.80s(wall), 72.75s(cpu)
        *  Thank you very much for using Q-Chem.  Have a nice day.  *
