 Q-Chem 5.3 (devel), Q-Chem, Inc., Pleasanton, CA (2020)
 Q-Chem 5.3.0 for Intel X86 EM64T Linux

User input:
--------------------------------------------------------------
$rem
   JOBTYPE  sp
   EXCHANGE   omegaB97X-D
   BASIS   6-311+G(2df,2pd)
   UNRESTRICTED   False
   max_scf_cycles   250
   geom_opt_max_cycles   1500
   basis2 6-31G*
   scf_algorithm rca_diis
   SYM_IGNORE  TRUE
   print_input   true
   geom_opt_dmax   80
   pop_mulliken false
   XC_GRID 000075000302
$end

$molecule
0 1
C       1.2440520381     0.1198918881     0.2630333671
C       -0.0000000519     0.2205920748     -0.6056475754
H       1.0263666281     -0.8734195231     0.6696376024
H       1.4854687348     0.7825012107     1.0911598408
H       2.1276740041     -0.0471495840     -0.3549817979
C       -1.2440523484     0.1198919692     0.2630329609
H       -0.0000001486     -0.8601827768     -0.7980704200
H       0.0000002684     0.6759434372     -1.5929344965
H       -1.0263664332     -0.8734195331     0.6696368595
H       -2.1276746780     -0.0471487533     -0.3549818568
H       -1.4854680740     0.7825002563     1.0911605349
$end
--------------------------------------------------------------

             Standard Nuclear Orientation (Angstroms)
    I     Atom           X                Y                Z
 ----------------------------------------------------------------
    1      C       1.2440520381     0.1198918881     0.2630333671
    2      C      -0.0000000519     0.2205920748    -0.6056475754
    3      H       1.0263666281    -0.8734195231     0.6696376024
    4      H       1.4854687348     0.7825012107     1.0911598408
    5      H       2.1276740041    -0.0471495840    -0.3549817979
    6      C      -1.2440523484     0.1198919692     0.2630329609
    7      H      -0.0000001486    -0.8601827768    -0.7980704200
    8      H       0.0000002684     0.6759434372    -1.5929344965
    9      H      -1.0263664332    -0.8734195331     0.6696368595
   10      H      -2.1276746780    -0.0471487533    -0.3549818568
   11      H      -1.4854680740     0.7825002563     1.0911605349
 ----------------------------------------------------------------

    7    -119.0510250509      5.50E-06 Convergence criterion met
    6    -119.0961845962      3.74E-06 Convergence criterion met
 Total energy in the final basis set = -119.09618460

                    Orbital Energies (a.u.)
 --------------------------------------------------------------

 Alpha MOs
 -- Occupied --
-10.2772 -10.2683 -10.2682  -0.8988  -0.7790  -0.6762  -0.5624  -0.5222
 -0.4968  -0.4471  -0.4313  -0.4140  -0.3810

                    Cartesian Multipole Moments
 -----------------------------------------------------------------
    Charge (ESU x 10^10)
                -0.0000
    Dipole Moment (Debye)
         X       0.0000      Y      -0.3303      Z      -0.1363
       Tot       0.3573
    Quadrupole Moments (Debye-Ang)
        XX     -22.2460     XY       0.0000     YY     -21.8926
        XZ       0.0000     YZ       0.2905     ZZ     -21.5883

 Total job time:  26.45s(wall), 72.67s(cpu)
        *  Thank you very much for using Q-Chem.  Have a nice day.  *
