 Q-Chem 5.3 (devel), Q-Chem, Inc., Pleasanton, CA (2020)
 Q-Chem 5.3.0 for Intel X86 EM64T Linux

User input:
--------------------------------------------------------------
$rem
   JOBTYPE  sp
   EXCHANGE   omegaB97X-D
   BASIS   6-311+G(2df,2pd)
   UNRESTRICTED   False
   max_scf_cycles   250
   geom_opt_max_cycles   1500
   basis2 6-31G*
   scf_algorithm rca_diis
   SYM_IGNORE  TRUE
   print_input   true
   geom_opt_dmax   80
   pop_mulliken false
   XC_GRID 000075000302
$end

$molecule
0 1
C       1.2671797806     0.0016633042     0.2587263824
C       0.0000000412     -0.0207611896     -0.5878106814
H       1.2922237275     -0.9076418414     0.9515017000
H       1.3168729101     0.8525947148     0.8560594986
H       2.1639370762     -0.0307370031     -0.3595611642
C       -1.2671796438     0.0016629782     0.2587264103
H       0.0000000831     -0.7794942668     -1.1672568569
H       -0.0000000968     0.9684966157     -1.3173402655
H       -1.2922234618     -0.9076414350     0.9515012736
H       -2.1639375290     -0.0307366543     -0.3595615152
H       -1.3168729479     0.8525954434     0.8560602370
$end
--------------------------------------------------------------

             Standard Nuclear Orientation (Angstroms)
    I     Atom           X                Y                Z
 ----------------------------------------------------------------
    1      C       1.2671797806     0.0016633042     0.2587263824
    2      C       0.0000000412    -0.0207611896    -0.5878106814
    3      H       1.2922237275    -0.9076418414     0.9515017000
    4      H       1.3168729101     0.8525947148     0.8560594986
    5      H       2.1639370762    -0.0307370031    -0.3595611642
    6      C      -1.2671796438     0.0016629782     0.2587264103
    7      H       0.0000000831    -0.7794942668    -1.1672568569
    8      H      -0.0000000968     0.9684966157    -1.3173402655
    9      H      -1.2922234618    -0.9076414350     0.9515012736
   10      H      -2.1639375290    -0.0307366543    -0.3595615152
   11      H      -1.3168729479     0.8525954434     0.8560602370
 ----------------------------------------------------------------

    7    -119.0726528986      5.19E-06 Convergence criterion met
    6    -119.1168330085      4.03E-06 Convergence criterion met
 Total energy in the final basis set = -119.11683301

                    Orbital Energies (a.u.)
 --------------------------------------------------------------

 Alpha MOs
 -- Occupied --
-10.2728 -10.2655 -10.2655  -0.8840  -0.7785  -0.6861  -0.5450  -0.5232
 -0.4879  -0.4595  -0.4314  -0.4195  -0.3955

                    Cartesian Multipole Moments
 -----------------------------------------------------------------
    Charge (ESU x 10^10)
                -0.0000
    Dipole Moment (Debye)
         X       0.0000      Y      -0.0448      Z      -0.0522
       Tot       0.0687
    Quadrupole Moments (Debye-Ang)
        XX     -22.1098     XY       0.0000     YY     -21.3811
        XZ      -0.0000     YZ       0.2622     ZZ     -21.9164

 Total job time:  26.56s(wall), 72.55s(cpu)
        *  Thank you very much for using Q-Chem.  Have a nice day.  *
