 Q-Chem 5.3 (devel), Q-Chem, Inc., Pleasanton, CA (2020)
 Q-Chem 5.3.0 for Intel X86 EM64T Linux

User input:
--------------------------------------------------------------
$rem
   JOBTYPE  sp
   EXCHANGE   omegaB97X-D
   BASIS   6-311+G(2df,2pd)
   UNRESTRICTED   False
   max_scf_cycles   250
   geom_opt_max_cycles   1500
   basis2 6-31G*
   scf_algorithm rca_diis
   SYM_IGNORE  TRUE
   print_input   true
   geom_opt_dmax   80
   pop_mulliken false
   XC_GRID 000075000302
$end

$molecule
0 1
C       1.1077909699     0.0051015927     0.2608204877
C       0.0000000515     -0.0135742688     -0.7631579148
H       0.9958230997     -0.8821363567     0.8886182015
H       0.9462074783     0.8698018794     0.9086251850
H       2.1334294251     0.0355036198     -0.1027652741
C       -1.1077907186     0.0051018055     0.2608206679
H       -0.0000004647     -0.9049764334     -1.3920485676
H       0.0000001599     0.8620088377     -1.4143458976
H       -0.9958228582     -0.8821361708     0.8886183140
H       -2.1334291643     0.0355038130     -0.1027654748
H       -0.9462080392     0.8698023475     0.9086252915
$end
--------------------------------------------------------------

             Standard Nuclear Orientation (Angstroms)
    I     Atom           X                Y                Z
 ----------------------------------------------------------------
    1      C       1.1077909699     0.0051015927     0.2608204877
    2      C       0.0000000515    -0.0135742688    -0.7631579148
    3      H       0.9958230997    -0.8821363567     0.8886182015
    4      H       0.9462074783     0.8698018794     0.9086251850
    5      H       2.1334294251     0.0355036198    -0.1027652741
    6      C      -1.1077907186     0.0051018055     0.2608206679
    7      H      -0.0000004647    -0.9049764334    -1.3920485676
    8      H       0.0000001599     0.8620088377    -1.4143458976
    9      H      -0.9958228582    -0.8821361708     0.8886183140
   10      H      -2.1334291643     0.0355038130    -0.1027654748
   11      H      -0.9462080392     0.8698023475     0.9086252915
 ----------------------------------------------------------------

    7    -119.0818133376      5.46E-06 Convergence criterion met
    5    -119.1256953156      7.23E-06 Convergence criterion met
 Total energy in the final basis set = -119.12569532

                    Orbital Energies (a.u.)
 --------------------------------------------------------------

 Alpha MOs
 -- Occupied --
-10.2734 -10.2628 -10.2627  -0.9017  -0.7593  -0.6882  -0.5603  -0.5394
 -0.4613  -0.4441  -0.4403  -0.4203  -0.3999

                    Cartesian Multipole Moments
 -----------------------------------------------------------------
    Charge (ESU x 10^10)
                -0.0000
    Dipole Moment (Debye)
         X      -0.0000      Y      -0.0068      Z      -0.0292
       Tot       0.0300
    Quadrupole Moments (Debye-Ang)
        XX     -22.7327     XY      -0.0000     YY     -21.2085
        XZ       0.0000     YZ       0.0142     ZZ     -21.7451

 Total job time:  26.21s(wall), 70.78s(cpu)
        *  Thank you very much for using Q-Chem.  Have a nice day.  *
