 Q-Chem 5.3 (devel), Q-Chem, Inc., Pleasanton, CA (2020)
 Q-Chem 5.3.0 for Intel X86 EM64T Linux

User input:
--------------------------------------------------------------
$rem
   JOBTYPE  sp
   EXCHANGE   omegaB97X-D
   BASIS   6-311+G(2df,2pd)
   UNRESTRICTED   False
   max_scf_cycles   250
   geom_opt_max_cycles   1500
   basis2 6-31G*
   scf_algorithm rca_diis
   SYM_IGNORE  TRUE
   print_input   true
   geom_opt_dmax   80
   pop_mulliken false
   XC_GRID 000075000302
$end

$molecule
0 1
C       1.1760174114     -0.0026144693     0.1505387390
C       -0.2074700427     0.0019863971     -0.6148709159
H       1.3118026198     -0.8675253234     0.8124013134
H       1.2454180055     0.7657914798     0.9306263067
H       2.1501273659     0.0480092005     -0.3438881682
C       -1.3185183152     0.0138371638     0.3429785500
H       0.1342111727     -0.8668325734     -1.1824659724
H       0.1686412477     0.8512618352     -1.1902214370
H       -1.2240071751     -0.8799815104     0.9528965826
H       -2.1381419392     -0.0370774998     -0.3697471666
H       -1.2980804114     0.9731459660     0.8527971874
$end
--------------------------------------------------------------

             Standard Nuclear Orientation (Angstroms)
    I     Atom           X                Y                Z
 ----------------------------------------------------------------
    1      C       1.1760174114    -0.0026144693     0.1505387390
    2      C      -0.2074700427     0.0019863971    -0.6148709159
    3      H       1.3118026198    -0.8675253234     0.8124013134
    4      H       1.2454180055     0.7657914798     0.9306263067
    5      H       2.1501273659     0.0480092005    -0.3438881682
    6      C      -1.3185183152     0.0138371638     0.3429785500
    7      H       0.1342111727    -0.8668325734    -1.1824659724
    8      H       0.1686412477     0.8512618352    -1.1902214370
    9      H      -1.2240071751    -0.8799815104     0.9528965826
   10      H      -2.1381419392    -0.0370774998    -0.3697471666
   11      H      -1.2980804114     0.9731459660     0.8527971874
 ----------------------------------------------------------------

    7    -119.0492027521      6.67E-06 Convergence criterion met
    5    -119.0942164134      8.48E-06 Convergence criterion met
 Total energy in the final basis set = -119.09421641

                    Orbital Energies (a.u.)
 --------------------------------------------------------------

 Alpha MOs
 -- Occupied --
-10.2758 -10.2723 -10.2623  -0.8934  -0.7841  -0.6817  -0.5554  -0.5262
 -0.4974  -0.4665  -0.4289  -0.3960  -0.3795

                    Cartesian Multipole Moments
 -----------------------------------------------------------------
    Charge (ESU x 10^10)
                -0.0000
    Dipole Moment (Debye)
         X       0.0433      Y      -0.0028      Z       0.0269
       Tot       0.0510
    Quadrupole Moments (Debye-Ang)
        XX     -22.2506     XY      -0.0467     YY     -21.4777
        XZ      -0.3881     YZ      -0.0002     ZZ     -22.3186

 Total job time:  25.08s(wall), 67.74s(cpu)
        *  Thank you very much for using Q-Chem.  Have a nice day.  *
