 Q-Chem 5.3 (devel), Q-Chem, Inc., Pleasanton, CA (2020)
 Q-Chem 5.3.0 for Intel X86 EM64T Linux

User input:
--------------------------------------------------------------
$rem
   JOBTYPE  sp
   EXCHANGE   omegaB97X-D
   BASIS   6-311+G(2df,2pd)
   UNRESTRICTED   False
   max_scf_cycles   250
   geom_opt_max_cycles   1500
   basis2 6-31G*
   scf_algorithm rca_diis
   SYM_IGNORE  TRUE
   print_input   true
   geom_opt_dmax   80
   pop_mulliken false
   XC_GRID 000075000302
$end

$molecule
0 1
C       1.2727057803     0.0605995946     0.2047006658
C       0.0000000252     0.0550596529     -0.6687153192
H       1.4242204924     -0.7708278173     0.9063335197
H       1.1331033218     0.8143695604     0.9792981864
H       2.1072017615     -0.1783367841     -0.4506822625
C       -1.2727061256     0.0606005542     0.2047003838
H       -0.0000008842     -0.9360602353     -1.1143409565
H       0.0000003175     1.0293922966     -1.1551981477
H       -1.4242224223     -0.7708264819     0.9063335260
H       -2.1072012217     -0.1783404127     -0.4506817439
H       -1.1331011055     0.8143707386     0.9792971670
$end
--------------------------------------------------------------

             Standard Nuclear Orientation (Angstroms)
    I     Atom           X                Y                Z
 ----------------------------------------------------------------
    1      C       1.2727057803     0.0605995946     0.2047006658
    2      C       0.0000000252     0.0550596529    -0.6687153192
    3      H       1.4242204924    -0.7708278173     0.9063335197
    4      H       1.1331033218     0.8143695604     0.9792981864
    5      H       2.1072017615    -0.1783367841    -0.4506822625
    6      C      -1.2727061256     0.0606005542     0.2047003838
    7      H      -0.0000008842    -0.9360602353    -1.1143409565
    8      H       0.0000003175     1.0293922966    -1.1551981477
    9      H      -1.4242224223    -0.7708264819     0.9063335260
   10      H      -2.1072012217    -0.1783404127    -0.4506817439
   11      H      -1.1331011055     0.8143707386     0.9792971670
 ----------------------------------------------------------------

    7    -119.0461780297      7.88E-06 Convergence criterion met
    5    -119.0917570745      9.96E-06 Convergence criterion met
 Total energy in the final basis set = -119.09175707

                    Orbital Energies (a.u.)
 --------------------------------------------------------------

 Alpha MOs
 -- Occupied --
-10.2782 -10.2653 -10.2653  -0.8832  -0.7786  -0.6789  -0.5697  -0.5180
 -0.5099  -0.4586  -0.4097  -0.3992  -0.3813

                    Cartesian Multipole Moments
 -----------------------------------------------------------------
    Charge (ESU x 10^10)
                -0.0000
    Dipole Moment (Debye)
         X       0.0000      Y      -0.3232      Z       0.1049
       Tot       0.3398
    Quadrupole Moments (Debye-Ang)
        XX     -22.9189     XY       0.0000     YY     -21.6703
        XZ      -0.0000     YZ       0.4148     ZZ     -21.7217

 Total job time:  25.96s(wall), 69.68s(cpu)
        *  Thank you very much for using Q-Chem.  Have a nice day.  *
