 Q-Chem 5.3 (devel), Q-Chem, Inc., Pleasanton, CA (2020)
 Q-Chem 5.3.0 for Intel X86 EM64T Linux

User input:
--------------------------------------------------------------
$rem
   JOBTYPE  sp
   EXCHANGE   omegaB97X-D
   BASIS   6-311+G(2df,2pd)
   UNRESTRICTED   False
   max_scf_cycles   250
   geom_opt_max_cycles   1500
   basis2 6-31G*
   scf_algorithm rca_diis
   SYM_IGNORE  TRUE
   print_input   true
   geom_opt_dmax   80
   pop_mulliken false
   XC_GRID 000075000302
$end

$molecule
0 1
C       1.2749036172     -0.0002705916     0.2266922567
C       0.0000001295     -0.0041571712     -0.6121165910
H       1.3136465742     -0.9216955351     0.9031361494
H       1.3025213904     0.9223380982     0.9155565606
H       2.0672149118     0.0074848219     -0.3156345667
C       -1.2749027355     -0.0002705165     0.2266931727
H       -0.0000000347     -0.8626895613     -1.2477518958
H       -0.0000000398     0.8511328356     -1.2585859146
H       -1.3136454138     -0.9216938727     0.9031360831
H       -2.0672178873     0.0074852606     -0.3156359534
H       -1.3025205727     0.9223368981     0.9155557179
$end
--------------------------------------------------------------

             Standard Nuclear Orientation (Angstroms)
    I     Atom           X                Y                Z
 ----------------------------------------------------------------
    1      C       1.2749036172    -0.0002705916     0.2266922567
    2      C       0.0000001295    -0.0041571712    -0.6121165910
    3      H       1.3136465742    -0.9216955351     0.9031361494
    4      H       1.3025213904     0.9223380982     0.9155565606
    5      H       2.0672149118     0.0074848219    -0.3156345667
    6      C      -1.2749027355    -0.0002705165     0.2266931727
    7      H      -0.0000000347    -0.8626895613    -1.2477518958
    8      H      -0.0000000398     0.8511328356    -1.2585859146
    9      H      -1.3136454138    -0.9216938727     0.9031360831
   10      H      -2.0672178873     0.0074852606    -0.3156359534
   11      H      -1.3025205727     0.9223368981     0.9155557179
 ----------------------------------------------------------------

    7    -119.0672509914      5.67E-06 Convergence criterion met
    5    -119.1121790072      9.35E-06 Convergence criterion met
 Total energy in the final basis set = -119.11217901

                    Orbital Energies (a.u.)
 --------------------------------------------------------------

 Alpha MOs
 -- Occupied --
-10.2702 -10.2614 -10.2614  -0.8831  -0.7850  -0.6819  -0.5435  -0.5419
 -0.4813  -0.4497  -0.4320  -0.4176  -0.4042

                    Cartesian Multipole Moments
 -----------------------------------------------------------------
    Charge (ESU x 10^10)
                -0.0000
    Dipole Moment (Debye)
         X       0.0000      Y      -0.0130      Z      -0.2956
       Tot       0.2958
    Quadrupole Moments (Debye-Ang)
        XX     -21.8381     XY      -0.0000     YY     -21.3103
        XZ      -0.0000     YZ      -0.0038     ZZ     -21.8800

 Total job time:  24.54s(wall), 66.37s(cpu)
        *  Thank you very much for using Q-Chem.  Have a nice day.  *
