 Q-Chem 5.3 (devel), Q-Chem, Inc., Pleasanton, CA (2020)
 Q-Chem 5.3.0 for Intel X86 EM64T Linux

User input:
--------------------------------------------------------------
$rem
   JOBTYPE  sp
   EXCHANGE   omegaB97X-D
   BASIS   6-311+G(2df,2pd)
   UNRESTRICTED   False
   max_scf_cycles   250
   geom_opt_max_cycles   1500
   basis2 6-31G*
   scf_algorithm rca_diis
   SYM_IGNORE  TRUE
   print_input   true
   geom_opt_dmax   80
   pop_mulliken false
   XC_GRID 000075000302
$end

$molecule
0 1
C       1.3956022356     -0.0039419324     0.2622822444
C       -0.0000000391     0.0127931432     -0.3872156085
H       1.5851676825     -0.8810387920     0.8829753555
H       1.6229343342     0.8869598008     0.8500737422
H       2.1028632673     -0.0317396637     -0.5697079800
C       -1.3956024126     -0.0039422455     0.2622819863
H       0.0000004349     -0.8381295580     -1.0752187137
H       -0.0000002426     0.8848581300     -1.0477672088
H       -1.5851679068     -0.8810390859     0.8829750903
H       -2.1028636747     -0.0317384305     -0.5697079394
H       -1.6229337393     0.8869592999     0.8500740505
$end
--------------------------------------------------------------

             Standard Nuclear Orientation (Angstroms)
    I     Atom           X                Y                Z
 ----------------------------------------------------------------
    1      C       1.3956022356    -0.0039419324     0.2622822444
    2      C      -0.0000000391     0.0127931432    -0.3872156085
    3      H       1.5851676825    -0.8810387920     0.8829753555
    4      H       1.6229343342     0.8869598008     0.8500737422
    5      H       2.1028632673    -0.0317396637    -0.5697079800
    6      C      -1.3956024126    -0.0039422455     0.2622819863
    7      H       0.0000004349    -0.8381295580    -1.0752187137
    8      H      -0.0000002426     0.8848581300    -1.0477672088
    9      H      -1.5851679068    -0.8810390859     0.8829750903
   10      H      -2.1028636747    -0.0317384305    -0.5697079394
   11      H      -1.6229337393     0.8869592999     0.8500740505
 ----------------------------------------------------------------

    7    -119.0921880809      4.14E-06 Convergence criterion met
    6    -119.1351407976      4.17E-06 Convergence criterion met
 Total energy in the final basis set = -119.13514080

                    Orbital Energies (a.u.)
 --------------------------------------------------------------

 Alpha MOs
 -- Occupied --
-10.2765 -10.2688 -10.2688  -0.8740  -0.7865  -0.6736  -0.5399  -0.5127
 -0.4934  -0.4718  -0.4261  -0.4030  -0.4015

                    Cartesian Multipole Moments
 -----------------------------------------------------------------
    Charge (ESU x 10^10)
                 0.0000
    Dipole Moment (Debye)
         X       0.0000      Y      -0.0015      Z      -0.1507
       Tot       0.1507
    Quadrupole Moments (Debye-Ang)
        XX     -21.9822     XY      -0.0000     YY     -21.4140
        XZ       0.0000     YZ      -0.0041     ZZ     -21.7857

 Total job time:  26.82s(wall), 72.34s(cpu)
        *  Thank you very much for using Q-Chem.  Have a nice day.  *
