 Q-Chem 5.3 (devel), Q-Chem, Inc., Pleasanton, CA (2020)
 Q-Chem 5.3.0 for Intel X86 EM64T Linux

User input:
--------------------------------------------------------------
$rem
   JOBTYPE  sp
   EXCHANGE   omegaB97X-D
   BASIS   6-311+G(2df,2pd)
   UNRESTRICTED   False
   max_scf_cycles   250
   geom_opt_max_cycles   1500
   basis2 6-31G*
   scf_algorithm rca_diis
   SYM_IGNORE  TRUE
   print_input   true
   geom_opt_dmax   80
   pop_mulliken false
   XC_GRID 000075000302
$end

$molecule
0 1
C       1.2621385021     -0.0108927666     0.2838379725
C       0.0000000220     0.0150716204     -0.6001460920
H       1.3442539692     -0.8875982855     0.9276714708
H       1.3523519410     0.8864449980     0.8991002709
H       2.1247584991     -0.0113802635     -0.3854655605
C       -1.2621385260     -0.0108928015     0.2838380028
H       -0.0000001076     -0.8595415482     -1.2559353684
H       -0.0000000016     0.8913226525     -1.2531618666
H       -1.3442539376     -0.8875983191     0.9276714762
H       -2.1247584348     -0.0113795671     -0.3854656234
H       -1.3523519865     0.8864449464     0.8991003366
$end
--------------------------------------------------------------

             Standard Nuclear Orientation (Angstroms)
    I     Atom           X                Y                Z
 ----------------------------------------------------------------
    1      C       1.2621385021    -0.0108927666     0.2838379725
    2      C       0.0000000220     0.0150716204    -0.6001460920
    3      H       1.3442539692    -0.8875982855     0.9276714708
    4      H       1.3523519410     0.8864449980     0.8991002709
    5      H       2.1247584991    -0.0113802635    -0.3854655605
    6      C      -1.2621385260    -0.0108928015     0.2838380028
    7      H      -0.0000001076    -0.8595415482    -1.2559353684
    8      H      -0.0000000016     0.8913226525    -1.2531618666
    9      H      -1.3442539376    -0.8875983191     0.9276714762
   10      H      -2.1247584348    -0.0113795671    -0.3854656234
   11      H      -1.3523519865     0.8864449464     0.8991003366
 ----------------------------------------------------------------

    7    -119.1005568685      5.11E-06 Convergence criterion met
    5    -119.1433334659      9.21E-06 Convergence criterion met
 Total energy in the final basis set = -119.14333347

                    Orbital Energies (a.u.)
 --------------------------------------------------------------

 Alpha MOs
 -- Occupied --
-10.2779 -10.2650 -10.2650  -0.8766  -0.7752  -0.6792  -0.5433  -0.5171
 -0.4850  -0.4653  -0.4258  -0.4114  -0.4030

                    Cartesian Multipole Moments
 -----------------------------------------------------------------
    Charge (ESU x 10^10)
                 0.0000
    Dipole Moment (Debye)
         X       0.0000      Y       0.0068      Z      -0.1166
       Tot       0.1168
    Quadrupole Moments (Debye-Ang)
        XX     -22.4923     XY      -0.0000     YY     -21.2665
        XZ       0.0000     YZ      -0.1119     ZZ     -21.6300

 Total job time:  25.05s(wall), 67.37s(cpu)
        *  Thank you very much for using Q-Chem.  Have a nice day.  *
