 Q-Chem 5.3 (devel), Q-Chem, Inc., Pleasanton, CA (2020)
 Q-Chem 5.3.0 for Intel X86 EM64T Linux

User input:
--------------------------------------------------------------
$rem
   JOBTYPE  sp
   EXCHANGE   omegaB97X-D
   BASIS   6-311+G(2df,2pd)
   UNRESTRICTED   False
   max_scf_cycles   250
   geom_opt_max_cycles   1500
   basis2 6-31G*
   scf_algorithm rca_diis
   SYM_IGNORE  TRUE
   print_input   true
   geom_opt_dmax   80
   pop_mulliken false
   XC_GRID 000075000302
$end

$molecule
0 1
C       1.2159164411     0.0045606385     0.2172871887
C       0.0798861572     0.0002872862     -0.5870417730
H       1.2469464846     -0.8718461729     0.8650407764
H       1.2662778954     0.8999877975     0.8371195352
H       2.0953840398     -0.0142456228     -0.4270614328
C       -1.3202254670     -0.0043654197     0.2975358123
H       0.1842231850     -0.8729638883     -1.2353494524
H       0.1768798253     0.8739060968     -1.2359940853
H       -1.3637328539     -0.8890344271     0.9387746884
H       -2.2353386406     0.0130857281     -0.2953435694
H       -1.3462171275     0.8606286496     0.9660773309
$end
--------------------------------------------------------------

             Standard Nuclear Orientation (Angstroms)
    I     Atom           X                Y                Z
 ----------------------------------------------------------------
    1      C       1.2159164411     0.0045606385     0.2172871887
    2      C       0.0798861572     0.0002872862    -0.5870417730
    3      H       1.2469464846    -0.8718461729     0.8650407764
    4      H       1.2662778954     0.8999877975     0.8371195352
    5      H       2.0953840398    -0.0142456228    -0.4270614328
    6      C      -1.3202254670    -0.0043654197     0.2975358123
    7      H       0.1842231850    -0.8729638883    -1.2353494524
    8      H       0.1768798253     0.8739060968    -1.2359940853
    9      H      -1.3637328539    -0.8890344271     0.9387746884
   10      H      -2.2353386406     0.0130857281    -0.2953435694
   11      H      -1.3462171275     0.8606286496     0.9660773309
 ----------------------------------------------------------------

    7    -119.0794466722      5.21E-06 Convergence criterion met
    6    -119.1233562865      4.63E-06 Convergence criterion met
 Total energy in the final basis set = -119.12335629

                    Orbital Energies (a.u.)
 --------------------------------------------------------------

 Alpha MOs
 -- Occupied --
-10.2744 -10.2731 -10.2548  -0.8941  -0.7759  -0.6738  -0.5527  -0.5297
 -0.4813  -0.4641  -0.4367  -0.4027  -0.3971

                    Cartesian Multipole Moments
 -----------------------------------------------------------------
    Charge (ESU x 10^10)
                -0.0000
    Dipole Moment (Debye)
         X       0.0855      Y      -0.0003      Z      -0.0793
       Tot       0.1166
    Quadrupole Moments (Debye-Ang)
        XX     -22.0901     XY       0.0022     YY     -21.3529
        XZ      -0.6261     YZ      -0.0027     ZZ     -21.8853

 Total job time:  27.70s(wall), 75.11s(cpu)
        *  Thank you very much for using Q-Chem.  Have a nice day.  *
