 Q-Chem 5.3 (devel), Q-Chem, Inc., Pleasanton, CA (2020)
 Q-Chem 5.3.0 for Intel X86 EM64T Linux

User input:
--------------------------------------------------------------
$rem
   JOBTYPE  sp
   EXCHANGE   omegaB97X-D
   BASIS   6-311+G(2df,2pd)
   UNRESTRICTED   False
   max_scf_cycles   250
   geom_opt_max_cycles   1500
   basis2 6-31G*
   scf_algorithm rca_diis
   SYM_IGNORE  TRUE
   print_input   true
   geom_opt_dmax   80
   pop_mulliken false
   XC_GRID 000075000302
$end

$molecule
0 1
C       1.2301648656     0.0011751156     0.2593688601
C       0.0000000115     -0.0034252886     -0.6337659575
H       1.2302569936     -0.8808565458     0.9032756977
H       1.2186825204     0.8783759083     0.9096649792
H       2.1659113514     0.0086634635     -0.2995827088
C       -1.2301648088     0.0011751620     0.2593689132
H       -0.0000001121     -0.8822168239     -1.2822779070
H       -0.0000000101     0.8709261111     -1.2883648197
H       -1.2302569330     -0.8808564882     0.9032757398
H       -2.1659112706     0.0086640217     -0.2995827464
H       -1.2186826685     0.8783760303     0.9096649683
$end
--------------------------------------------------------------

             Standard Nuclear Orientation (Angstroms)
    I     Atom           X                Y                Z
 ----------------------------------------------------------------
    1      C       1.2301648656     0.0011751156     0.2593688601
    2      C       0.0000000115    -0.0034252886    -0.6337659575
    3      H       1.2302569936    -0.8808565458     0.9032756977
    4      H       1.2186825204     0.8783759083     0.9096649792
    5      H       2.1659113514     0.0086634635    -0.2995827088
    6      C      -1.2301648088     0.0011751620     0.2593689132
    7      H      -0.0000001121    -0.8822168239    -1.2822779070
    8      H      -0.0000000101     0.8709261111    -1.2883648197
    9      H      -1.2302569330    -0.8808564882     0.9032757398
   10      H      -2.1659112706     0.0086640217    -0.2995827464
   11      H      -1.2186826685     0.8783760303     0.9096649683
 ----------------------------------------------------------------

    7    -119.1021358538      4.65E-06 Convergence criterion met
    5    -119.1451282109      9.42E-06 Convergence criterion met
 Total energy in the final basis set = -119.14512821

                    Orbital Energies (a.u.)
 --------------------------------------------------------------

 Alpha MOs
 -- Occupied --
-10.2740 -10.2643 -10.2643  -0.8846  -0.7738  -0.6795  -0.5482  -0.5277
 -0.4787  -0.4603  -0.4222  -0.4154  -0.4098

                    Cartesian Multipole Moments
 -----------------------------------------------------------------
    Charge (ESU x 10^10)
                -0.0000
    Dipole Moment (Debye)
         X      -0.0000      Y      -0.0009      Z      -0.0745
       Tot       0.0745
    Quadrupole Moments (Debye-Ang)
        XX     -22.2436     XY      -0.0000     YY     -21.3408
        XZ       0.0000     YZ       0.0015     ZZ     -21.8518

 Total job time:  24.79s(wall), 67.07s(cpu)
        *  Thank you very much for using Q-Chem.  Have a nice day.  *
