 Q-Chem 5.2 (devel), Q-Chem, Inc., Pleasanton, CA (2019)
 Q-Chem 5.2.2 for Intel X86 EM64T Linux

User input:
--------------------------------------------------------------
$rem
   JOBTYPE  sp
   EXCHANGE   omegaB97X-D
   BASIS   6-311+G(2df,2pd)
   max_scf_cycles   250
   geom_opt_max_cycles   1500
   basis2 6-31G*
   scf_algorithm rca_diis
   SYM_IGNORE  TRUE
   print_input   true
   geom_opt_dmax   80
   pop_mulliken false
   XC_GRID 000075000302
$end

$molecule
0 1
C       1.1513901629     0.0001270298     0.2597068874
C       0.0000000348     -0.0017380092     -0.7211061182
H       1.0585675116     -0.8763043575     0.9052215268
H       1.0560248097     0.8773758051     0.9035107849
H       2.1516566158     -0.0009274947     -0.1710312226
C       -1.1513899774     0.0001271426     0.2597070417
H       -0.0000002858     -0.8796885364     -1.3693479655
H       0.0000000575     0.8808845816     -1.3633170145
H       -1.0585674983     -0.8763044643     0.9052213782
H       -2.1516564039     -0.0009269405     -0.1710313539
H       -1.0560250875     0.8773759095     0.9035110745
--------------------------------------------------------------

             Standard Nuclear Orientation (Angstroms)
    I     Atom           X                Y                Z
 ----------------------------------------------------------------
    1      C       1.1513901629     0.0001270298     0.2597068874
    2      C       0.0000000348    -0.0017380092    -0.7211061182
    3      H       1.0585675116    -0.8763043575     0.9052215268
    4      H       1.0560248097     0.8773758051     0.9035107849
    5      H       2.1516566158    -0.0009274947    -0.1710312226
    6      C      -1.1513899774     0.0001271426     0.2597070417
    7      H      -0.0000002858    -0.8796885364    -1.3693479655
    8      H       0.0000000575     0.8808845816    -1.3633170145
    9      H      -1.0585674983    -0.8763044643     0.9052213782
   10      H      -2.1516564039    -0.0009269405    -0.1710313539
   11      H      -1.0560250875     0.8773759095     0.9035110745
 ----------------------------------------------------------------

    7    -119.0926281364      5.10E-06 Convergence criterion met
    5    -119.1360140714      7.97E-06 Convergence criterion met
 Total energy in the final basis set = -119.13601407

                    Orbital Energies (a.u.)
 --------------------------------------------------------------

 Alpha MOs
 -- Occupied --
-10.2735 -10.2633 -10.2633  -0.8945  -0.7652  -0.6846  -0.5549  -0.5354
 -0.4685  -0.4508  -0.4332  -0.4157  -0.4068

                    Cartesian Multipole Moments
 -----------------------------------------------------------------
    Charge (ESU x 10^10)
                 0.0000
    Dipole Moment (Debye)
         X      -0.0000      Y      -0.0000      Z      -0.0483
       Tot       0.0483
    Quadrupole Moments (Debye-Ang)
        XX     -22.4952     XY      -0.0000     YY     -21.2821
        XZ      -0.0000     YZ       0.0088     ZZ     -21.8065

 Total job time:  44.47s(wall), 123.59s(cpu)
        *  Thank you very much for using Q-Chem.  Have a nice day.  *
