 Q-Chem 5.3 (devel), Q-Chem, Inc., Pleasanton, CA (2020)
 Q-Chem 5.3.0 for Intel X86 EM64T Linux

User input:
--------------------------------------------------------------
$rem
   JOBTYPE  sp
   EXCHANGE   omegaB97X-D
   BASIS   6-311+G(2df,2pd)
   UNRESTRICTED   False
   max_scf_cycles   250
   geom_opt_max_cycles   1500
   basis2 6-31G*
   scf_algorithm rca_diis
   SYM_IGNORE  TRUE
   print_input   true
   geom_opt_dmax   80
   pop_mulliken false
   XC_GRID 000075000302
$end

$molecule
0 1
C       1.1871337834     -0.0066790168     0.2625697956
C       0.0000000405     0.0082086307     -0.4885800126
H       1.2876638137     -0.8821890473     0.9054599745
H       1.3185681260     0.8911785493     0.8687063972
H       1.9883715654     -0.0300753957     -0.4754617543
C       -1.1871334888     -0.0066786766     0.2625702236
H       -0.0000007383     -0.8484657530     -1.1669957679
H       -0.0000000418     0.8957862638     -1.1259282188
H       -1.2876635568     -0.8821886546     0.9054604287
H       -1.9883705884     -0.0300755018     -0.4754620876
H       -1.3185689755     0.8911792680     0.8687060405
$end
--------------------------------------------------------------

             Standard Nuclear Orientation (Angstroms)
    I     Atom           X                Y                Z
 ----------------------------------------------------------------
    1      C       1.1871337834    -0.0066790168     0.2625697956
    2      C       0.0000000405     0.0082086307    -0.4885800126
    3      H       1.2876638137    -0.8821890473     0.9054599745
    4      H       1.3185681260     0.8911785493     0.8687063972
    5      H       1.9883715654    -0.0300753957    -0.4754617543
    6      C      -1.1871334888    -0.0066786766     0.2625702236
    7      H      -0.0000007383    -0.8484657530    -1.1669957679
    8      H      -0.0000000418     0.8957862638    -1.1259282188
    9      H      -1.2876635568    -0.8821886546     0.9054604287
   10      H      -1.9883705884    -0.0300755018    -0.4754620876
   11      H      -1.3185689755     0.8911792680     0.8687060405
 ----------------------------------------------------------------

    7    -119.0786696416      4.85E-06 Convergence criterion met
    6    -119.1237486287      3.13E-06 Convergence criterion met
 Total energy in the final basis set = -119.12374863

                    Orbital Energies (a.u.)
 --------------------------------------------------------------

 Alpha MOs
 -- Occupied --
-10.2540 -10.2536 -10.2533  -0.9173  -0.7889  -0.6672  -0.5666  -0.5396
 -0.5049  -0.4658  -0.4176  -0.4107  -0.3944

                    Cartesian Multipole Moments
 -----------------------------------------------------------------
    Charge (ESU x 10^10)
                -0.0000
    Dipole Moment (Debye)
         X      -0.0000      Y       0.0099      Z      -0.1671
       Tot       0.1674
    Quadrupole Moments (Debye-Ang)
        XX     -22.7978     XY      -0.0000     YY     -21.1139
        XZ       0.0000     YZ      -0.0153     ZZ     -21.6940

 Total job time:  27.52s(wall), 75.17s(cpu)
        *  Thank you very much for using Q-Chem.  Have a nice day.  *
