 Q-Chem 5.2 (devel), Q-Chem, Inc., Pleasanton, CA (2019)
 Q-Chem 5.2.2 for Intel X86 EM64T Linux

User input:
--------------------------------------------------------------
$rem
   JOBTYPE  sp
   EXCHANGE   omegaB97X-D
   BASIS   6-311+G(2df,2pd)
   max_scf_cycles   250
   geom_opt_max_cycles   1500
   basis2 6-31G*
   scf_algorithm rca_diis
   SYM_IGNORE  TRUE
   print_input   true
   geom_opt_dmax   80
   pop_mulliken false
   XC_GRID 000075000302
$end

$molecule
0 1
C       1.2500295683     0.0002621734     0.2459360619
C       0.0266328384     0.0000008437     -0.5869780611
H       1.2885420897     -0.8825337444     0.8863915878
H       1.2897404103     0.8824569630     0.8871154978
H       2.1413960396     0.0002203425     -0.3821945711
C       -1.2848248428     -0.0002660074     0.2726451733
H       0.0606173179     -0.8736110685     -1.2422672846
H       0.0598598862     0.8736265378     -1.2422877610
H       -1.3225500877     -0.8787578197     0.9208619873
H       -2.1880910758     -0.0002304982     -0.3383151994
H       -1.3213522047     0.8788329439     0.9201375880
--------------------------------------------------------------

             Standard Nuclear Orientation (Angstroms)
    I     Atom           X                Y                Z
 ----------------------------------------------------------------
    1      C       1.2500295683     0.0002621734     0.2459360619
    2      C       0.0266328384     0.0000008437    -0.5869780611
    3      H       1.2885420897    -0.8825337444     0.8863915878
    4      H       1.2897404103     0.8824569630     0.8871154978
    5      H       2.1413960396     0.0002203425    -0.3821945711
    6      C      -1.2848248428    -0.0002660074     0.2726451733
    7      H       0.0606173179    -0.8736110685    -1.2422672846
    8      H       0.0598598862     0.8736265378    -1.2422877610
    9      H      -1.3225500877    -0.8787578197     0.9208619873
   10      H      -2.1880910758    -0.0002304982    -0.3383151994
   11      H      -1.3213522047     0.8788329439     0.9201375880
 ----------------------------------------------------------------

    7    -119.1005958965      4.60E-06 Convergence criterion met
    6    -119.1436195009      3.99E-06 Convergence criterion met
 Total energy in the final basis set = -119.14361950

                    Orbital Energies (a.u.)
 --------------------------------------------------------------

 Alpha MOs
 -- Occupied --
-10.2739 -10.2684 -10.2617  -0.8826  -0.7770  -0.6773  -0.5465  -0.5248
 -0.4824  -0.4637  -0.4247  -0.4115  -0.4069

                    Cartesian Multipole Moments
 -----------------------------------------------------------------
    Charge (ESU x 10^10)
                 0.0000
    Dipole Moment (Debye)
         X       0.0254      Y       0.0000      Z      -0.0850
       Tot       0.0887
    Quadrupole Moments (Debye-Ang)
        XX     -22.1575     XY       0.0025     YY     -21.3624
        XZ      -0.2095     YZ       0.0000     ZZ     -21.8453

 Total job time:  49.22s(wall), 137.17s(cpu)
        *  Thank you very much for using Q-Chem.  Have a nice day.  *
