 Q-Chem 5.2 (devel), Q-Chem, Inc., Pleasanton, CA (2019)
 Q-Chem 5.2.2 for Intel X86 EM64T Linux

User input:
--------------------------------------------------------------
$rem
   JOBTYPE  sp
   EXCHANGE   omegaB97X-D
   BASIS   6-311+G(2df,2pd)
   max_scf_cycles   250
   geom_opt_max_cycles   1500
   basis2 6-31G*
   scf_algorithm rca_diis
   SYM_IGNORE  TRUE
   print_input   true
   geom_opt_dmax   80
   pop_mulliken false
   XC_GRID 000075000302
$end

$molecule
0 1
C       1.2550976562     0.0718313495     0.2738206684
C       -0.0000001166     -0.0869344298     -0.6019851833
H       1.2369253079     -0.8405255127     0.8786180636
H       1.4283715778     0.9038148680     0.9545937569
H       2.1102981478     -0.0753649367     -0.3871880655
C       -1.2550978959     0.0718314715     0.2738206084
H       -0.0000006208     -0.8900633684     -1.3424977027
H       0.0000006300     0.8574870876     -1.1541607656
H       -1.2369255390     -0.8405254785     0.8786178478
H       -2.1102982564     -0.0753652386     -0.3871881810
H       -1.4283709517     0.9038148541     0.9545939718
--------------------------------------------------------------

             Standard Nuclear Orientation (Angstroms)
    I     Atom           X                Y                Z
 ----------------------------------------------------------------
    1      C       1.2550976562     0.0718313495     0.2738206684
    2      C      -0.0000001166    -0.0869344298    -0.6019851833
    3      H       1.2369253079    -0.8405255127     0.8786180636
    4      H       1.4283715778     0.9038148680     0.9545937569
    5      H       2.1102981478    -0.0753649367    -0.3871880655
    6      C      -1.2550978959     0.0718314715     0.2738206084
    7      H      -0.0000006208    -0.8900633684    -1.3424977027
    8      H       0.0000006300     0.8574870876    -1.1541607656
    9      H      -1.2369255390    -0.8405254785     0.8786178478
   10      H      -2.1102982564    -0.0753652386    -0.3871881810
   11      H      -1.4283709517     0.9038148541     0.9545939718
 ----------------------------------------------------------------

    7    -119.0778167638      6.27E-06 Convergence criterion met
    5    -119.1214156771      9.10E-06 Convergence criterion met
 Total energy in the final basis set = -119.12141568

                    Orbital Energies (a.u.)
 --------------------------------------------------------------

 Alpha MOs
 -- Occupied --
-10.2790 -10.2652 -10.2652  -0.8808  -0.7762  -0.6796  -0.5445  -0.5200
 -0.4969  -0.4532  -0.4481  -0.4000  -0.3822

                    Cartesian Multipole Moments
 -----------------------------------------------------------------
    Charge (ESU x 10^10)
                -0.0000
    Dipole Moment (Debye)
         X       0.0000      Y      -0.0154      Z      -0.1157
       Tot       0.1167
    Quadrupole Moments (Debye-Ang)
        XX     -22.5988     XY       0.0000     YY     -21.3508
        XZ       0.0000     YZ       0.9883     ZZ     -21.5991

 Total job time:  44.32s(wall), 123.21s(cpu)
        *  Thank you very much for using Q-Chem.  Have a nice day.  *
