 Q-Chem 5.3 (devel), Q-Chem, Inc., Pleasanton, CA (2020)
 Q-Chem 5.3.0 for Intel X86 EM64T Linux

User input:
--------------------------------------------------------------
$rem
   JOBTYPE  sp
   EXCHANGE   omegaB97X-D
   BASIS   6-311+G(2df,2pd)
   UNRESTRICTED   False
   max_scf_cycles   250
   geom_opt_max_cycles   1500
   basis2 6-31G*
   scf_algorithm rca_diis
   SYM_IGNORE  TRUE
   print_input   true
   geom_opt_dmax   80
   pop_mulliken false
   XC_GRID 000075000302
$end

$molecule
0 1
C       1.2844857077     0.0912532970     0.2306711902
C       0.0106983819     -0.0008912226     -0.5859506927
H       1.1451930284     -0.8580230851     0.7581499582
H       1.3929866873     0.8475185432     1.0078153694
H       2.2121983042     -0.0215089225     -0.3293589003
C       -1.2449928058     -0.0818658858     0.2883269478
H       0.1873337819     -0.8582942201     -1.2397218178
H       -0.2499281671     0.8350292397     -1.2394547412
H       -1.4527687400     -0.8610832011     1.0199391502
H       -2.1017594249     0.0297284959     -0.3785648389
H       -1.1834468142     0.8781376274     0.8091933940
$end
--------------------------------------------------------------

             Standard Nuclear Orientation (Angstroms)
    I     Atom           X                Y                Z
 ----------------------------------------------------------------
    1      C       1.2844857077     0.0912532970     0.2306711902
    2      C       0.0106983819    -0.0008912226    -0.5859506927
    3      H       1.1451930284    -0.8580230851     0.7581499582
    4      H       1.3929866873     0.8475185432     1.0078153694
    5      H       2.2121983042    -0.0215089225    -0.3293589003
    6      C      -1.2449928058    -0.0818658858     0.2883269478
    7      H       0.1873337819    -0.8582942201    -1.2397218178
    8      H      -0.2499281671     0.8350292397    -1.2394547412
    9      H      -1.4527687400    -0.8610832011     1.0199391502
   10      H      -2.1017594249     0.0297284959    -0.3785648389
   11      H      -1.1834468142     0.8781376274     0.8091933940
 ----------------------------------------------------------------

    7    -119.0831990394      4.80E-06 Convergence criterion met
    6    -119.1268050139      4.15E-06 Convergence criterion met
 Total energy in the final basis set = -119.12680501

                    Orbital Energies (a.u.)
 --------------------------------------------------------------

 Alpha MOs
 -- Occupied --
-10.2780 -10.2667 -10.2652  -0.8863  -0.7803  -0.6777  -0.5514  -0.5284
 -0.4805  -0.4656  -0.4200  -0.4106  -0.4018

                    Cartesian Multipole Moments
 -----------------------------------------------------------------
    Charge (ESU x 10^10)
                 0.0000
    Dipole Moment (Debye)
         X      -0.0337      Y      -0.0317      Z      -0.0524
       Tot       0.0699
    Quadrupole Moments (Debye-Ang)
        XX     -22.0337     XY      -0.1098     YY     -21.6181
        XZ      -0.0280     YZ       0.0519     ZZ     -21.8361

 Total job time:  27.46s(wall), 74.66s(cpu)
        *  Thank you very much for using Q-Chem.  Have a nice day.  *
