 Q-Chem 5.3 (devel), Q-Chem, Inc., Pleasanton, CA (2020)
 Q-Chem 5.3.0 for Intel X86 EM64T Linux

User input:
--------------------------------------------------------------
$rem
   JOBTYPE  sp
   EXCHANGE   omegaB97X-D
   BASIS   6-311+G(2df,2pd)
   UNRESTRICTED   False
   max_scf_cycles   250
   geom_opt_max_cycles   1500
   basis2 6-31G*
   scf_algorithm rca_diis
   SYM_IGNORE  TRUE
   print_input   true
   geom_opt_dmax   80
   pop_mulliken false
   XC_GRID 000075000302
$end

$molecule
0 1
C       1.2615357337     0.0373508278     0.2758816668
C       -0.0000003293     0.0189751261     -0.5423763608
H       1.3713327789     -0.8073063626     0.9652116502
H       1.1767755210     0.8091393477     1.0431834692
H       2.1279990410     -0.0264177579     -0.3752768055
C       -1.2615365062     0.0373548091     0.2758809481
H       -0.0000014313     -0.6207772814     -1.4398323880
H       0.0000017241     0.5762755808     -1.4947481980
H       -1.3713432332     -0.8072996496     0.9652135568
H       -2.1279977015     -0.0264329439     -0.3752781244
H       -1.1767656578     0.8091389698     1.0431856044
$end
--------------------------------------------------------------

             Standard Nuclear Orientation (Angstroms)
    I     Atom           X                Y                Z
 ----------------------------------------------------------------
    1      C       1.2615357337     0.0373508278     0.2758816668
    2      C      -0.0000003293     0.0189751261    -0.5423763608
    3      H       1.3713327789    -0.8073063626     0.9652116502
    4      H       1.1767755210     0.8091393477     1.0431834692
    5      H       2.1279990410    -0.0264177579    -0.3752768055
    6      C      -1.2615365062     0.0373548091     0.2758809481
    7      H      -0.0000014313    -0.6207772814    -1.4398323880
    8      H       0.0000017241     0.5762755808    -1.4947481980
    9      H      -1.3713432332    -0.8072996496     0.9652135568
   10      H      -2.1279977015    -0.0264329439    -0.3752781244
   11      H      -1.1767656578     0.8091389698     1.0431856044
 ----------------------------------------------------------------

    7    -119.0375209505      8.44E-06 Convergence criterion met
    6    -119.0848041705      4.33E-06 Convergence criterion met
 Total energy in the final basis set = -119.08480417

                    Orbital Energies (a.u.)
 --------------------------------------------------------------

 Alpha MOs
 -- Occupied --
-10.2747 -10.2685 -10.2685  -0.8886  -0.7808  -0.7134  -0.5504  -0.5071
 -0.5010  -0.4715  -0.4494  -0.4127  -0.3397

                    Cartesian Multipole Moments
 -----------------------------------------------------------------
    Charge (ESU x 10^10)
                 0.0000
    Dipole Moment (Debye)
         X       0.0000      Y      -0.1738      Z      -0.2884
       Tot       0.3367
    Quadrupole Moments (Debye-Ang)
        XX     -22.1199     XY       0.0001     YY     -23.5180
        XZ      -0.0000     YZ       0.2455     ZZ     -19.6802

 Total job time:  26.90s(wall), 73.53s(cpu)
        *  Thank you very much for using Q-Chem.  Have a nice day.  *
