 Q-Chem 5.3 (devel), Q-Chem, Inc., Pleasanton, CA (2020)
 Q-Chem 5.3.0 for Intel X86 EM64T Linux

User input:
--------------------------------------------------------------
$rem
   JOBTYPE  sp
   EXCHANGE   omegaB97X-D
   BASIS   6-311+G(2df,2pd)
   UNRESTRICTED   False
   max_scf_cycles   250
   geom_opt_max_cycles   1500
   basis2 6-31G*
   scf_algorithm rca_diis
   SYM_IGNORE  TRUE
   print_input   true
   geom_opt_dmax   80
   pop_mulliken false
   XC_GRID 000075000302
$end

$molecule
0 1
C       1.4914827004     -0.0062911548     0.2670110566
C       -0.0000000682     0.0214676195     -0.1713122641
H       1.8259910092     -0.8827531829     0.8226477680
H       1.8822003682     0.8893242256     0.7515803646
H       1.9609089652     -0.0551718400     -0.7201725529
C       -1.4914829597     -0.0062918094     0.2670104836
H       0.0000008659     -0.8032710082     -0.8930397348
H       -0.0000004036     0.8915883735     -0.8367359170
H       -1.8259913951     -0.8827538483     0.8226470865
H       -1.9609098649     -0.0551699508     -0.7201726863
H       -1.8821992780     0.8893232417     0.7515814147
$end
--------------------------------------------------------------

             Standard Nuclear Orientation (Angstroms)
    I     Atom           X                Y                Z
 ----------------------------------------------------------------
    1      C       1.4914827004    -0.0062911548     0.2670110566
    2      C      -0.0000000682     0.0214676195    -0.1713122641
    3      H       1.8259910092    -0.8827531829     0.8226477680
    4      H       1.8822003682     0.8893242256     0.7515803646
    5      H       1.9609089652    -0.0551718400    -0.7201725529
    6      C      -1.4914829597    -0.0062918094     0.2670104836
    7      H       0.0000008659    -0.8032710082    -0.8930397348
    8      H      -0.0000004036     0.8915883735    -0.8367359170
    9      H      -1.8259913951    -0.8827538483     0.8226470865
   10      H      -1.9609098649    -0.0551699508    -0.7201726863
   11      H      -1.8821992780     0.8893232417     0.7515814147
 ----------------------------------------------------------------

    7    -119.0627164455      4.27E-06 Convergence criterion met
    6    -119.1061823098      4.21E-06 Convergence criterion met
 Total energy in the final basis set = -119.10618231

                    Orbital Energies (a.u.)
 --------------------------------------------------------------

 Alpha MOs
 -- Occupied --
-10.2799 -10.2741 -10.2741  -0.8741  -0.7929  -0.6716  -0.5379  -0.5050
 -0.5012  -0.4768  -0.4279  -0.3992  -0.3862

                    Cartesian Multipole Moments
 -----------------------------------------------------------------
    Charge (ESU x 10^10)
                -0.0000
    Dipole Moment (Debye)
         X       0.0000      Y      -0.0066      Z      -0.2882
       Tot       0.2883
    Quadrupole Moments (Debye-Ang)
        XX     -21.7627     XY      -0.0000     YY     -21.4607
        XZ       0.0000     YZ      -0.0171     ZZ     -21.8904

 Total job time:  26.40s(wall), 71.39s(cpu)
        *  Thank you very much for using Q-Chem.  Have a nice day.  *
