 Q-Chem 5.2 (devel), Q-Chem, Inc., Pleasanton, CA (2019)
 Q-Chem 5.2.2 for Intel X86 EM64T Linux

User input:
--------------------------------------------------------------
$rem
   JOBTYPE  sp
   EXCHANGE   omegaB97X-D
   BASIS   6-311+G(2df,2pd)
   max_scf_cycles   250
   geom_opt_max_cycles   1500
   basis2 6-31G*
   scf_algorithm rca_diis
   SYM_IGNORE  TRUE
   print_input   true
   geom_opt_dmax   80
   pop_mulliken false
   XC_GRID 000075000302
$end

$molecule
0 1
C       1.2608348921     0.0222756323     0.2892342816
C       0.0000000056     0.0124850787     -0.5588715387
H       1.3856361478     -0.9229747094     0.8206070682
H       1.2786752958     0.9504249054     0.8574688531
H       2.1891973011     -0.0703521558     -0.2809939871
C       -1.2608350291     0.0222753821     0.2892339020
H       0.0000003449     -0.8429345503     -1.2385054694
H       -0.0000002527     0.8717004821     -1.2342110236
H       -1.3856341715     -0.9229741680     0.8206084325
H       -2.1891974004     -0.0703494318     -0.2809947962
H       -1.2786771941     0.9504242007     0.8574692964
--------------------------------------------------------------

             Standard Nuclear Orientation (Angstroms)
    I     Atom           X                Y                Z
 ----------------------------------------------------------------
    1      C       1.2608348921     0.0222756323     0.2892342816
    2      C       0.0000000056     0.0124850787    -0.5588715387
    3      H       1.3856361478    -0.9229747094     0.8206070682
    4      H       1.2786752958     0.9504249054     0.8574688531
    5      H       2.1891973011    -0.0703521558    -0.2809939871
    6      C      -1.2608350291     0.0222753821     0.2892339020
    7      H       0.0000003449    -0.8429345503    -1.2385054694
    8      H      -0.0000002527     0.8717004821    -1.2342110236
    9      H      -1.3856341715    -0.9229741680     0.8206084325
   10      H      -2.1891974004    -0.0703494318    -0.2809947962
   11      H      -1.2786771941     0.9504242007     0.8574692964
 ----------------------------------------------------------------

    7    -119.0889182462      5.70E-06 Convergence criterion met
    6    -119.1326628213      3.57E-06 Convergence criterion met
 Total energy in the final basis set = -119.13266282

                    Orbital Energies (a.u.)
 --------------------------------------------------------------

 Alpha MOs
 -- Occupied --
-10.2732 -10.2652 -10.2652  -0.8826  -0.7797  -0.6779  -0.5588  -0.5199
 -0.4872  -0.4613  -0.4161  -0.4126  -0.4010

                    Cartesian Multipole Moments
 -----------------------------------------------------------------
    Charge (ESU x 10^10)
                -0.0000
    Dipole Moment (Debye)
         X       0.0000      Y      -0.0985      Z      -0.1799
       Tot       0.2051
    Quadrupole Moments (Debye-Ang)
        XX     -21.8280     XY      -0.0000     YY     -20.8174
        XZ       0.0000     YZ       0.2574     ZZ     -22.6154

 Total job time:  48.92s(wall), 136.45s(cpu)
        *  Thank you very much for using Q-Chem.  Have a nice day.  *
