 Q-Chem 5.3 (devel), Q-Chem, Inc., Pleasanton, CA (2020)
 Q-Chem 5.3.0 for Intel X86 EM64T Linux

User input:
--------------------------------------------------------------
$rem
   JOBTYPE  sp
   EXCHANGE   omegaB97X-D
   BASIS   6-311+G(2df,2pd)
   UNRESTRICTED   False
   max_scf_cycles   250
   geom_opt_max_cycles   1500
   basis2 6-31G*
   scf_algorithm rca_diis
   SYM_IGNORE  TRUE
   print_input   true
   geom_opt_dmax   80
   pop_mulliken false
   XC_GRID 000075000302
$end

$molecule
0 1
C       1.2677470188     -0.0237823670     0.2582361570
C       0.0000000081     -0.0464838318     -0.5885738961
H       1.3526719226     -0.8682851278     0.9440492155
H       1.2512328486     0.8854403547     0.8640666125
H       2.1654912259     0.0151273967     -0.3593087165
C       -1.2677469602     -0.0237823916     0.2582362457
H       0.0000000017     -0.8549849481     -1.3219361845
H       -0.0000001222     0.8844681118     -1.1625314983
H       -1.3526719448     -0.8682850707     0.9440493485
H       -2.1654910913     0.0151280089     -0.3593087043
H       -1.2512329678     0.8854405309     0.8640664394
$end
--------------------------------------------------------------

             Standard Nuclear Orientation (Angstroms)
    I     Atom           X                Y                Z
 ----------------------------------------------------------------
    1      C       1.2677470188    -0.0237823670     0.2582361570
    2      C       0.0000000081    -0.0464838318    -0.5885738961
    3      H       1.3526719226    -0.8682851278     0.9440492155
    4      H       1.2512328486     0.8854403547     0.8640666125
    5      H       2.1654912259     0.0151273967    -0.3593087165
    6      C      -1.2677469602    -0.0237823916     0.2582362457
    7      H       0.0000000017    -0.8549849481    -1.3219361845
    8      H      -0.0000001222     0.8844681118    -1.1625314983
    9      H      -1.3526719448    -0.8682850707     0.9440493485
   10      H      -2.1654910913     0.0151280089    -0.3593087043
   11      H      -1.2512329678     0.8854405309     0.8640664394
 ----------------------------------------------------------------

    7    -119.1013727466      4.50E-06 Convergence criterion met
    6    -119.1443340422      3.89E-06 Convergence criterion met
 Total energy in the final basis set = -119.14433404

                    Orbital Energies (a.u.)
 --------------------------------------------------------------

 Alpha MOs
 -- Occupied --
-10.2743 -10.2654 -10.2654  -0.8816  -0.7772  -0.6778  -0.5461  -0.5241
 -0.4837  -0.4621  -0.4191  -0.4185  -0.4061

                    Cartesian Multipole Moments
 -----------------------------------------------------------------
    Charge (ESU x 10^10)
                -0.0000
    Dipole Moment (Debye)
         X      -0.0000      Y       0.0599      Z      -0.0841
       Tot       0.1033
    Quadrupole Moments (Debye-Ang)
        XX     -22.1551     XY      -0.0000     YY     -21.4053
        XZ      -0.0000     YZ      -0.0365     ZZ     -21.8229

 Total job time:  27.30s(wall), 74.14s(cpu)
        *  Thank you very much for using Q-Chem.  Have a nice day.  *
