 Q-Chem 5.3 (devel), Q-Chem, Inc., Pleasanton, CA (2020)
 Q-Chem 5.3.0 for Intel X86 EM64T Linux

User input:
--------------------------------------------------------------
$rem
   JOBTYPE  sp
   EXCHANGE   omegaB97X-D
   BASIS   6-311+G(2df,2pd)
   UNRESTRICTED   False
   max_scf_cycles   250
   geom_opt_max_cycles   1500
   basis2 6-31G*
   scf_algorithm rca_diis
   SYM_IGNORE  TRUE
   print_input   true
   geom_opt_dmax   80
   pop_mulliken false
   XC_GRID 000075000302
$end

$molecule
0 1
C       1.3674760911     0.0112066038     0.2593990910
C       -0.0000000806     -0.0107251512     -0.7212804536
H       1.3208811921     -0.8771467226     0.8948730614
H       1.2838784312     0.8643833556     0.9369521341
H       2.3637902978     0.0351256620     -0.1860750659
C       -1.3674765774     0.0112061694     0.2593985447
H       0.0000009065     -0.9036781767     -1.3504720151
H       -0.0000000803     0.8472664298     -1.3975006200
H       -1.3208815828     -0.8771471531     0.8948725081
H       -2.3637912720     0.0351273168     -0.1860743323
H       -1.2838773861     0.8643823323     0.9369521665
$end
--------------------------------------------------------------

             Standard Nuclear Orientation (Angstroms)
    I     Atom           X                Y                Z
 ----------------------------------------------------------------
    1      C       1.3674760911     0.0112066038     0.2593990910
    2      C      -0.0000000806    -0.0107251512    -0.7212804536
    3      H       1.3208811921    -0.8771467226     0.8948730614
    4      H       1.2838784312     0.8643833556     0.9369521341
    5      H       2.3637902978     0.0351256620    -0.1860750659
    6      C      -1.3674765774     0.0112061694     0.2593985447
    7      H       0.0000009065    -0.9036781767    -1.3504720151
    8      H      -0.0000000803     0.8472664298    -1.3975006200
    9      H      -1.3208815828    -0.8771471531     0.8948725081
   10      H      -2.3637912720     0.0351273168    -0.1860743323
   11      H      -1.2838773861     0.8643823323     0.9369521665
 ----------------------------------------------------------------

    7    -119.0784081258      4.43E-06 Convergence criterion met
    5    -119.1207766591      9.22E-06 Convergence criterion met
 Total energy in the final basis set = -119.12077666

                    Orbital Energies (a.u.)
 --------------------------------------------------------------

 Alpha MOs
 -- Occupied --
-10.2997 -10.2782 -10.2782  -0.8453  -0.7693  -0.6920  -0.5259  -0.5120
 -0.4650  -0.4608  -0.4227  -0.4153  -0.4110

                    Cartesian Multipole Moments
 -----------------------------------------------------------------
    Charge (ESU x 10^10)
                -0.0000
    Dipole Moment (Debye)
         X       0.0000      Y      -0.0167      Z       0.0270
       Tot       0.0317
    Quadrupole Moments (Debye-Ang)
        XX     -21.4271     XY      -0.0000     YY     -21.6783
        XZ      -0.0000     YZ       0.0347     ZZ     -21.9358

 Total job time:  23.40s(wall), 63.36s(cpu)
        *  Thank you very much for using Q-Chem.  Have a nice day.  *
