 Q-Chem 5.3 (devel), Q-Chem, Inc., Pleasanton, CA (2020)
 Q-Chem 5.3.0 for Intel X86 EM64T Linux

User input:
--------------------------------------------------------------
$rem
   JOBTYPE  sp
   EXCHANGE   omegaB97X-D
   BASIS   6-311+G(2df,2pd)
   UNRESTRICTED   False
   max_scf_cycles   250
   geom_opt_max_cycles   1500
   basis2 6-31G*
   scf_algorithm rca_diis
   SYM_IGNORE  TRUE
   print_input   true
   geom_opt_dmax   80
   pop_mulliken false
   XC_GRID 000075000302
$end

$molecule
0 1
C       1.2275757609     0.0032111080     0.2979398870
C       -0.0118013317     0.0007054306     -0.5874540047
H       1.2550263136     -0.8032192427     0.8960927603
H       1.2684407164     0.8317269000     0.8756494821
H       2.2968484987     -0.0158992723     -0.4213110195
C       -1.3056080588     -0.0013099655     0.2197133766
H       0.0018892899     -0.8733583420     -1.2428551492
H       -0.0019735709     0.8743734756     -1.2434982629
H       -1.3550395857     -0.9563312567     0.9097734291
H       -2.0335279683     0.0109524254     -0.2959082335
H       -1.3418301248     0.9291494057     0.9329027536
$end
--------------------------------------------------------------

             Standard Nuclear Orientation (Angstroms)
    I     Atom           X                Y                Z
 ----------------------------------------------------------------
    1      C       1.2275757609     0.0032111080     0.2979398870
    2      C      -0.0118013317     0.0007054306    -0.5874540047
    3      H       1.2550263136    -0.8032192427     0.8960927603
    4      H       1.2684407164     0.8317269000     0.8756494821
    5      H       2.2968484987    -0.0158992723    -0.4213110195
    6      C      -1.3056080588    -0.0013099655     0.2197133766
    7      H       0.0018892899    -0.8733583420    -1.2428551492
    8      H      -0.0019735709     0.8743734756    -1.2434982629
    9      H      -1.3550395857    -0.9563312567     0.9097734291
   10      H      -2.0335279683     0.0109524254    -0.2959082335
   11      H      -1.3418301248     0.9291494057     0.9329027536
 ----------------------------------------------------------------

    7    -119.0309054699      6.04E-06 Convergence criterion met
    5    -119.0768427629      9.14E-06 Convergence criterion met
 Total energy in the final basis set = -119.07684276

                    Orbital Energies (a.u.)
 --------------------------------------------------------------

 Alpha MOs
 -- Occupied --
-10.2757 -10.2659 -10.2619  -0.8856  -0.7879  -0.6845  -0.5499  -0.5343
 -0.4783  -0.4671  -0.4277  -0.4063  -0.4052

                    Cartesian Multipole Moments
 -----------------------------------------------------------------
    Charge (ESU x 10^10)
                 0.0000
    Dipole Moment (Debye)
         X      -0.2455      Y       0.0069      Z      -0.0639
       Tot       0.2538
    Quadrupole Moments (Debye-Ang)
        XX     -22.4452     XY      -0.0144     YY     -21.3542
        XZ       0.3807     YZ       0.0058     ZZ     -21.7675

 Total job time:  24.59s(wall), 66.50s(cpu)
        *  Thank you very much for using Q-Chem.  Have a nice day.  *
