 Q-Chem 5.2 (devel), Q-Chem, Inc., Pleasanton, CA (2019)
 Q-Chem 5.2.2 for Intel X86 EM64T Linux

User input:
--------------------------------------------------------------
$rem
   JOBTYPE  sp
   EXCHANGE   omegaB97X-D
   BASIS   6-311+G(2df,2pd)
   max_scf_cycles   250
   geom_opt_max_cycles   1500
   basis2 6-31G*
   scf_algorithm rca_diis
   SYM_IGNORE  TRUE
   print_input   true
   geom_opt_dmax   80
   pop_mulliken false
   XC_GRID 000075000302
$end

$molecule
0 1
C       1.2627810672     -0.1096101184     0.2547143065
C       -0.0045665557     -0.0014465136     -0.5888079227
H       1.3309403166     -0.9213258138     0.9809948310
H       1.2753117111     0.8242764079     0.8223366212
H       2.1545791489     -0.0367452256     -0.3681069290
C       -1.2626821242     0.1079628307     0.2604431674
H       0.3381330989     -0.8218535045     -1.2238242336
H       -0.3253255322     0.8257314830     -1.2264963882
H       -1.2776593595     -0.8345828958     0.8124606568
H       -2.1611888425     0.0347108363     -0.3535966812
H       -1.3303229892     0.9328831799     0.9709275906
--------------------------------------------------------------

             Standard Nuclear Orientation (Angstroms)
    I     Atom           X                Y                Z
 ----------------------------------------------------------------
    1      C       1.2627810672    -0.1096101184     0.2547143065
    2      C      -0.0045665557    -0.0014465136    -0.5888079227
    3      H       1.3309403166    -0.9213258138     0.9809948310
    4      H       1.2753117111     0.8242764079     0.8223366212
    5      H       2.1545791489    -0.0367452256    -0.3681069290
    6      C      -1.2626821242     0.1079628307     0.2604431674
    7      H       0.3381330989    -0.8218535045    -1.2238242336
    8      H      -0.3253255322     0.8257314830    -1.2264963882
    9      H      -1.2776593595    -0.8345828958     0.8124606568
   10      H      -2.1611888425     0.0347108363    -0.3535966812
   11      H      -1.3303229892     0.9328831799     0.9709275906
 ----------------------------------------------------------------

    7    -119.0538473684      6.38E-06 Convergence criterion met
    6    -119.0985520681      4.44E-06 Convergence criterion met
 Total energy in the final basis set = -119.09855207

                    Orbital Energies (a.u.)
 --------------------------------------------------------------

 Alpha MOs
 -- Occupied --
-10.2734 -10.2680 -10.2679  -0.8869  -0.7835  -0.6773  -0.5515  -0.5272
 -0.5031  -0.4719  -0.4324  -0.4044  -0.3599

                    Cartesian Multipole Moments
 -----------------------------------------------------------------
    Charge (ESU x 10^10)
                -0.0000
    Dipole Moment (Debye)
         X      -0.0016      Y       0.0043      Z      -0.0092
       Tot       0.0103
    Quadrupole Moments (Debye-Ang)
        XX     -21.9200     XY      -0.8997     YY     -21.6293
        XZ      -0.0286     YZ      -0.0032     ZZ     -22.0915

 Total job time:  49.05s(wall), 136.59s(cpu)
        *  Thank you very much for using Q-Chem.  Have a nice day.  *
