 Q-Chem 5.3 (devel), Q-Chem, Inc., Pleasanton, CA (2020)
 Q-Chem 5.3.0 for Intel X86 EM64T Linux

User input:
--------------------------------------------------------------
$rem
   JOBTYPE  sp
   EXCHANGE   omegaB97X-D
   BASIS   6-311+G(2df,2pd)
   UNRESTRICTED   False
   max_scf_cycles   250
   geom_opt_max_cycles   1500
   basis2 6-31G*
   scf_algorithm rca_diis
   SYM_IGNORE  TRUE
   print_input   true
   geom_opt_dmax   80
   pop_mulliken false
   XC_GRID 000075000302
$end

$molecule
0 1
C       1.2099547220     0.0011962878     0.1587196212
C       -0.0000007071     -0.0029860188     -0.6410960504
H       1.5164257605     -0.7530972471     0.8962981143
H       1.4975809530     0.7504118930     0.9087906721
H       2.2512540667     0.0109981733     -0.1873584458
C       -1.2099562797     0.0011959323     0.1587200535
H       0.0000007024     -0.8861811722     -1.2784708804
H       -0.0000009138     0.8701502460     -1.2922885760
H       -1.5164244996     -0.7530991503     0.8962980153
H       -2.2512539609     0.0110026953     -0.1873619509
H       -1.4975799040     0.7504090268     0.9087944460
$end
--------------------------------------------------------------

             Standard Nuclear Orientation (Angstroms)
    I     Atom           X                Y                Z
 ----------------------------------------------------------------
    1      C       1.2099547220     0.0011962878     0.1587196212
    2      C      -0.0000007071    -0.0029860188    -0.6410960504
    3      H       1.5164257605    -0.7530972471     0.8962981143
    4      H       1.4975809530     0.7504118930     0.9087906721
    5      H       2.2512540667     0.0109981733    -0.1873584458
    6      C      -1.2099562797     0.0011959323     0.1587200535
    7      H       0.0000007024    -0.8861811722    -1.2784708804
    8      H      -0.0000009138     0.8701502460    -1.2922885760
    9      H      -1.5164244996    -0.7530991503     0.8962980153
   10      H      -2.2512539609     0.0110026953    -0.1873619509
   11      H      -1.4975799040     0.7504090268     0.9087944460
 ----------------------------------------------------------------

    7    -119.0240608167      5.41E-06 Convergence criterion met
    6    -119.0724437049      4.37E-06 Convergence criterion met
 Total energy in the final basis set = -119.07244370

                    Orbital Energies (a.u.)
 --------------------------------------------------------------

 Alpha MOs
 -- Occupied --
-10.2859 -10.2637 -10.2637  -0.9009  -0.7962  -0.7162  -0.5427  -0.5362
 -0.5233  -0.4269  -0.4127  -0.4109  -0.3859

                    Cartesian Multipole Moments
 -----------------------------------------------------------------
    Charge (ESU x 10^10)
                -0.0000
    Dipole Moment (Debye)
         X       0.0000      Y      -0.0047      Z       0.0852
       Tot       0.0853
    Quadrupole Moments (Debye-Ang)
        XX     -20.3501     XY      -0.0000     YY     -22.5166
        XZ       0.0000     YZ       0.0087     ZZ     -21.6433

 Total job time:  28.17s(wall), 75.46s(cpu)
        *  Thank you very much for using Q-Chem.  Have a nice day.  *
