 Q-Chem 5.3 (devel), Q-Chem, Inc., Pleasanton, CA (2020)
 Q-Chem 5.3.0 for Intel X86 EM64T Linux

User input:
--------------------------------------------------------------
$rem
   JOBTYPE  sp
   EXCHANGE   omegaB97X-D
   BASIS   6-311+G(2df,2pd)
   UNRESTRICTED   False
   max_scf_cycles   250
   geom_opt_max_cycles   1500
   basis2 6-31G*
   scf_algorithm rca_diis
   SYM_IGNORE  TRUE
   print_input   true
   geom_opt_dmax   80
   pop_mulliken false
   XC_GRID 000075000302
$end

$molecule
0 1
C       1.2670534030     -0.0024409832     0.2582938985
C       -0.0000000485     0.0310163836     -0.5878440972
H       1.3218979375     -0.8370156312     0.8325579313
H       1.2844770909     0.9194100242     0.9759614758
H       2.1652364070     0.0465435580     -0.3601084477
C       -1.2670535845     -0.0024405218     0.2582938834
H       -0.0000001527     -1.0180674989     -1.3546406970
H       -0.0000000230     0.7340578855     -1.1298798944
H       -1.3218983461     -0.8370162382     0.8325585576
H       -2.1652356957     0.0465446895     -0.3601079056
H       -1.2844770485     0.9194089985     0.9759603142
$end
--------------------------------------------------------------

             Standard Nuclear Orientation (Angstroms)
    I     Atom           X                Y                Z
 ----------------------------------------------------------------
    1      C       1.2670534030    -0.0024409832     0.2582938985
    2      C      -0.0000000485     0.0310163836    -0.5878440972
    3      H       1.3218979375    -0.8370156312     0.8325579313
    4      H       1.2844770909     0.9194100242     0.9759614758
    5      H       2.1652364070     0.0465435580    -0.3601084477
    6      C      -1.2670535845    -0.0024405218     0.2582938834
    7      H      -0.0000001527    -1.0180674989    -1.3546406970
    8      H      -0.0000000230     0.7340578855    -1.1298798944
    9      H      -1.3218983461    -0.8370162382     0.8325585576
   10      H      -2.1652356957     0.0465446895    -0.3601079056
   11      H      -1.2844770485     0.9194089985     0.9759603142
 ----------------------------------------------------------------

    7    -119.0314239119      5.87E-06 Convergence criterion met
    6    -119.0773400863      4.22E-06 Convergence criterion met
 Total energy in the final basis set = -119.07734009

                    Orbital Energies (a.u.)
 --------------------------------------------------------------

 Alpha MOs
 -- Occupied --
-10.2723 -10.2660 -10.2660  -0.8876  -0.7802  -0.6956  -0.5445  -0.5217
 -0.4931  -0.4561  -0.4405  -0.4204  -0.3881

                    Cartesian Multipole Moments
 -----------------------------------------------------------------
    Charge (ESU x 10^10)
                -0.0000
    Dipole Moment (Debye)
         X      -0.0000      Y       0.0691      Z      -0.0041
       Tot       0.0692
    Quadrupole Moments (Debye-Ang)
        XX     -22.0481     XY      -0.0000     YY     -21.4141
        XZ      -0.0000     YZ      -0.3914     ZZ     -22.0071

 Total job time:  27.07s(wall), 73.70s(cpu)
        *  Thank you very much for using Q-Chem.  Have a nice day.  *
