 Q-Chem 5.3 (devel), Q-Chem, Inc., Pleasanton, CA (2020)
 Q-Chem 5.3.0 for Intel X86 EM64T Linux

User input:
--------------------------------------------------------------
$rem
   JOBTYPE  sp
   EXCHANGE   omegaB97X-D
   BASIS   6-311+G(2df,2pd)
   UNRESTRICTED   False
   max_scf_cycles   250
   geom_opt_max_cycles   1500
   basis2 6-31G*
   scf_algorithm rca_diis
   SYM_IGNORE  TRUE
   print_input   true
   geom_opt_dmax   80
   pop_mulliken false
   XC_GRID 000075000302
$end

$molecule
0 1
C       1.3056076756     -0.0012943066     0.2197147621
C       0.0118013334     0.0007217214     -0.5874531215
H       1.3550387988     -0.9563441049     0.9097938692
H       1.3418307476     0.9291339922     0.9328813030
H       2.0335315127     0.0109626246     -0.2959096899
C       -1.2275755895     0.0032272212     0.2979409055
H       -0.0018897179     -0.8733649457     -1.2428712055
H       0.0019739486     0.8743677648     -1.2434812385
H       -1.2550260365     -0.8032312664     0.8961132617
H       -2.2968520210     -0.0158890343     -0.4213129047
H       -1.2684407125     0.8317109999     0.8756290775
$end
--------------------------------------------------------------

             Standard Nuclear Orientation (Angstroms)
    I     Atom           X                Y                Z
 ----------------------------------------------------------------
    1      C       1.3056076756    -0.0012943066     0.2197147621
    2      C       0.0118013334     0.0007217214    -0.5874531215
    3      H       1.3550387988    -0.9563441049     0.9097938692
    4      H       1.3418307476     0.9291339922     0.9328813030
    5      H       2.0335315127     0.0109626246    -0.2959096899
    6      C      -1.2275755895     0.0032272212     0.2979409055
    7      H      -0.0018897179    -0.8733649457    -1.2428712055
    8      H       0.0019739486     0.8743677648    -1.2434812385
    9      H      -1.2550260365    -0.8032312664     0.8961132617
   10      H      -2.2968520210    -0.0158890343    -0.4213129047
   11      H      -1.2684407125     0.8317109999     0.8756290775
 ----------------------------------------------------------------

    7    -119.0309070804      6.04E-06 Convergence criterion met
    5    -119.0768442771      9.14E-06 Convergence criterion met
 Total energy in the final basis set = -119.07684428

                    Orbital Energies (a.u.)
 --------------------------------------------------------------

 Alpha MOs
 -- Occupied --
-10.2757 -10.2659 -10.2619  -0.8856  -0.7879  -0.6845  -0.5499  -0.5343
 -0.4782  -0.4671  -0.4277  -0.4063  -0.4052

                    Cartesian Multipole Moments
 -----------------------------------------------------------------
    Charge (ESU x 10^10)
                 0.0000
    Dipole Moment (Debye)
         X       0.2455      Y       0.0070      Z      -0.0639
       Tot       0.2538
    Quadrupole Moments (Debye-Ang)
        XX     -22.4452     XY       0.0144     YY     -21.3542
        XZ      -0.3807     YZ       0.0058     ZZ     -21.7675

 Total job time:  23.82s(wall), 64.97s(cpu)
        *  Thank you very much for using Q-Chem.  Have a nice day.  *
