 Q-Chem 5.3 (devel), Q-Chem, Inc., Pleasanton, CA (2020)
 Q-Chem 5.3.0 for Intel X86 EM64T Linux

User input:
--------------------------------------------------------------
$rem
   JOBTYPE  sp
   EXCHANGE   omegaB97X-D
   BASIS   6-311+G(2df,2pd)
   UNRESTRICTED   False
   max_scf_cycles   250
   geom_opt_max_cycles   1500
   basis2 6-31G*
   scf_algorithm rca_diis
   SYM_IGNORE  TRUE
   print_input   true
   geom_opt_dmax   80
   pop_mulliken false
   XC_GRID 000075000302
$end

$molecule
0 1
C       1.2625874738     0.0480705208     0.2614038450
C       -0.0000000188     0.0904409400     -0.5886975329
H       1.2021445683     -0.8917304043     0.8165399277
H       1.3965822498     0.8555035805     0.9815767087
H       2.1560494379     -0.0230774548     -0.3601992042
C       -1.2625875940     0.0480705283     0.2614036736
H       -0.0000000301     -0.8913537578     -1.0728122725
H       0.0000000702     0.8233806318     -1.3960875675
H       -1.2021445034     -0.8917304678     0.8165396445
H       -2.1560497133     -0.0230766711     -0.3601992294
H       -1.3965820010     0.8555032204     0.9815770260
$end
--------------------------------------------------------------

             Standard Nuclear Orientation (Angstroms)
    I     Atom           X                Y                Z
 ----------------------------------------------------------------
    1      C       1.2625874738     0.0480705208     0.2614038450
    2      C      -0.0000000188     0.0904409400    -0.5886975329
    3      H       1.2021445683    -0.8917304043     0.8165399277
    4      H       1.3965822498     0.8555035805     0.9815767087
    5      H       2.1560494379    -0.0230774548    -0.3601992042
    6      C      -1.2625875940     0.0480705283     0.2614036736
    7      H      -0.0000000301    -0.8913537578    -1.0728122725
    8      H       0.0000000702     0.8233806318    -1.3960875675
    9      H      -1.2021445034    -0.8917304678     0.8165396445
   10      H      -2.1560497133    -0.0230766711    -0.3601992294
   11      H      -1.3965820010     0.8555032204     0.9815770260
 ----------------------------------------------------------------

    7    -119.0958560284      4.57E-06 Convergence criterion met
    6    -119.1390110357      3.82E-06 Convergence criterion met
 Total energy in the final basis set = -119.13901104

                    Orbital Energies (a.u.)
 --------------------------------------------------------------

 Alpha MOs
 -- Occupied --
-10.2745 -10.2655 -10.2655  -0.8840  -0.7775  -0.6773  -0.5490  -0.5233
 -0.4859  -0.4603  -0.4205  -0.4175  -0.4031

                    Cartesian Multipole Moments
 -----------------------------------------------------------------
    Charge (ESU x 10^10)
                -0.0000
    Dipole Moment (Debye)
         X       0.0000      Y      -0.1189      Z      -0.0963
       Tot       0.1530
    Quadrupole Moments (Debye-Ang)
        XX     -22.1884     XY      -0.0000     YY     -21.4297
        XZ       0.0000     YZ       0.0784     ZZ     -21.8075

 Total job time:  27.02s(wall), 73.70s(cpu)
        *  Thank you very much for using Q-Chem.  Have a nice day.  *
