 Q-Chem 5.3 (devel), Q-Chem, Inc., Pleasanton, CA (2020)
 Q-Chem 5.3.0 for Intel X86 EM64T Linux

User input:
--------------------------------------------------------------
$rem
   JOBTYPE  sp
   EXCHANGE   omegaB97X-D
   BASIS   6-311+G(2df,2pd)
   UNRESTRICTED   False
   max_scf_cycles   250
   geom_opt_max_cycles   1500
   basis2 6-31G*
   scf_algorithm rca_diis
   SYM_IGNORE  TRUE
   print_input   true
   geom_opt_dmax   80
   pop_mulliken false
   XC_GRID 000075000302
$end

$molecule
0 1
C       1.2175453464     0.0940616269     0.2982738865
C       -0.0311762085     0.0083429128     -0.5916820686
H       1.2818522608     -0.7835792653     0.9448587762
H       1.3634117052     1.1547337663     0.4670144517
H       2.1575020768     -0.2827685842     -0.1244939243
C       -1.3101621270     -0.0671531738     0.2117725271
H       0.0972822491     -0.8628308407     -1.2384523391
H       -0.0609062007     0.8775949808     -1.2529489049
H       -1.3164376042     -0.9434343789     0.8629114889
H       -2.0829930941     0.3557783434     -0.4190594700
H       -1.3159184644     0.4492552787     1.1828505953
$end
--------------------------------------------------------------

             Standard Nuclear Orientation (Angstroms)
    I     Atom           X                Y                Z
 ----------------------------------------------------------------
    1      C       1.2175453464     0.0940616269     0.2982738865
    2      C      -0.0311762085     0.0083429128    -0.5916820686
    3      H       1.2818522608    -0.7835792653     0.9448587762
    4      H       1.3634117052     1.1547337663     0.4670144517
    5      H       2.1575020768    -0.2827685842    -0.1244939243
    6      C      -1.3101621270    -0.0671531738     0.2117725271
    7      H       0.0972822491    -0.8628308407    -1.2384523391
    8      H      -0.0609062007     0.8775949808    -1.2529489049
    9      H      -1.3164376042    -0.9434343789     0.8629114889
   10      H      -2.0829930941     0.3557783434    -0.4190594700
   11      H      -1.3159184644     0.4492552787     1.1828505953
 ----------------------------------------------------------------

    7    -119.0432002345      7.73E-06 Convergence criterion met
    6    -119.0895033476      4.21E-06 Convergence criterion met
 Total energy in the final basis set = -119.08950335

                    Orbital Energies (a.u.)
 --------------------------------------------------------------

 Alpha MOs
 -- Occupied --
-10.2741 -10.2662 -10.2653  -0.8838  -0.7838  -0.6850  -0.5613  -0.5399
 -0.4876  -0.4591  -0.4269  -0.3876  -0.3776

                    Cartesian Multipole Moments
 -----------------------------------------------------------------
    Charge (ESU x 10^10)
                -0.0000
    Dipole Moment (Debye)
         X       0.1845      Y      -0.0396      Z      -0.0217
       Tot       0.1899
    Quadrupole Moments (Debye-Ang)
        XX     -22.4104     XY      -1.0074     YY     -21.2595
        XZ      -0.1210     YZ      -0.9122     ZZ     -22.0665

 Total job time:  27.43s(wall), 74.68s(cpu)
        *  Thank you very much for using Q-Chem.  Have a nice day.  *
