 Q-Chem 5.3 (devel), Q-Chem, Inc., Pleasanton, CA (2020)
 Q-Chem 5.3.0 for Intel X86 EM64T Linux

User input:
--------------------------------------------------------------
$rem
   JOBTYPE  sp
   EXCHANGE   omegaB97X-D
   BASIS   6-311+G(2df,2pd)
   UNRESTRICTED   False
   max_scf_cycles   250
   geom_opt_max_cycles   1500
   basis2 6-31G*
   scf_algorithm rca_diis
   SYM_IGNORE  TRUE
   print_input   true
   geom_opt_dmax   80
   pop_mulliken false
   XC_GRID 000075000302
$end

$molecule
0 1
C       1.2618701889     -0.0118447308     0.2635977635
C       -0.0056121978     0.0003385670     -0.5875752338
H       1.2565358940     -0.9016300684     0.8924036375
H       1.3518842768     0.8923208860     0.8713208325
H       2.1691745717     0.0558654418     -0.3391868916
C       -1.2723913605     0.0128781208     0.2546925973
H       -0.0078489703     -0.8737112122     -1.2431578385
H       0.0171031649     0.8738505290     -1.2434848383
H       -1.3536955910     -0.8565667752     0.9139900181
H       -2.1577466470     -0.0567178325     -0.3765076473
H       -1.2592733903     0.8652177405     0.9349526195
$end
--------------------------------------------------------------

             Standard Nuclear Orientation (Angstroms)
    I     Atom           X                Y                Z
 ----------------------------------------------------------------
    1      C       1.2618701889    -0.0118447308     0.2635977635
    2      C      -0.0056121978     0.0003385670    -0.5875752338
    3      H       1.2565358940    -0.9016300684     0.8924036375
    4      H       1.3518842768     0.8923208860     0.8713208325
    5      H       2.1691745717     0.0558654418    -0.3391868916
    6      C      -1.2723913605     0.0128781208     0.2546925973
    7      H      -0.0078489703    -0.8737112122    -1.2431578385
    8      H       0.0171031649     0.8738505290    -1.2434848383
    9      H      -1.3536955910    -0.8565667752     0.9139900181
   10      H      -2.1577466470    -0.0567178325    -0.3765076473
   11      H      -1.2592733903     0.8652177405     0.9349526195
 ----------------------------------------------------------------

    7    -119.0995526568      4.70E-06 Convergence criterion met
    6    -119.1426556997      3.89E-06 Convergence criterion met
 Total energy in the final basis set = -119.14265570

                    Orbital Energies (a.u.)
 --------------------------------------------------------------

 Alpha MOs
 -- Occupied --
-10.2740 -10.2652 -10.2652  -0.8813  -0.7775  -0.6781  -0.5466  -0.5266
 -0.4825  -0.4613  -0.4224  -0.4168  -0.4028

                    Cartesian Multipole Moments
 -----------------------------------------------------------------
    Charge (ESU x 10^10)
                -0.0000
    Dipole Moment (Debye)
         X       0.0170      Y      -0.0021      Z      -0.0826
       Tot       0.0843
    Quadrupole Moments (Debye-Ang)
        XX     -22.1625     XY       0.4776     YY     -21.3728
        XZ      -0.0166     YZ      -0.0006     ZZ     -21.8562

 Total job time:  28.50s(wall), 76.75s(cpu)
        *  Thank you very much for using Q-Chem.  Have a nice day.  *
