 Q-Chem 5.3 (devel), Q-Chem, Inc., Pleasanton, CA (2020)
 Q-Chem 5.3.0 for Intel X86 EM64T Linux

User input:
--------------------------------------------------------------
$rem
   JOBTYPE  sp
   EXCHANGE   omegaB97X-D
   BASIS   6-311+G(2df,2pd)
   UNRESTRICTED   False
   max_scf_cycles   250
   geom_opt_max_cycles   1500
   basis2 6-31G*
   scf_algorithm rca_diis
   SYM_IGNORE  TRUE
   print_input   true
   geom_opt_dmax   80
   pop_mulliken false
   XC_GRID 000075000302
$end

$molecule
0 1
C       1.4705888118     -0.0059039326     0.2657730653
C       -0.0000000619     0.0199093146     -0.2263448605
H       1.7698726711     -0.8822602767     0.8416743857
H       1.8237085208     0.8890122927     0.7799213677
H       2.0030404796     -0.0504634110     -0.6885696602
C       -1.4705890603     -0.0059044983     0.2657725750
H       0.0000007575     -0.8113706573     -0.9398858693
H       -0.0000003649     0.8906929513     -0.8903222707
H       -1.7698730247     -0.8822608441     0.8416738218
H       -2.0030412527     -0.0504616979     -0.6885697281
H       -1.8237075369     0.8890114252     0.7799221921
$end
--------------------------------------------------------------

             Standard Nuclear Orientation (Angstroms)
    I     Atom           X                Y                Z
 ----------------------------------------------------------------
    1      C       1.4705888118    -0.0059039326     0.2657730653
    2      C      -0.0000000619     0.0199093146    -0.2263448605
    3      H       1.7698726711    -0.8822602767     0.8416743857
    4      H       1.8237085208     0.8890122927     0.7799213677
    5      H       2.0030404796    -0.0504634110    -0.6885696602
    6      C      -1.4705890603    -0.0059044983     0.2657725750
    7      H       0.0000007575    -0.8113706573    -0.9398858693
    8      H      -0.0000003649     0.8906929513    -0.8903222707
    9      H      -1.7698730247    -0.8822608441     0.8416738218
   10      H      -2.0030412527    -0.0504616979    -0.6885697281
   11      H      -1.8237075369     0.8890114252     0.7799221921
 ----------------------------------------------------------------

    7    -119.0717637868      4.18E-06 Convergence criterion met
    6    -119.1150535755      4.20E-06 Convergence criterion met
 Total energy in the final basis set = -119.11505358

                    Orbital Energies (a.u.)
 --------------------------------------------------------------

 Alpha MOs
 -- Occupied --
-10.2790 -10.2727 -10.2727  -0.8736  -0.7915  -0.6720  -0.5381  -0.5066
 -0.4994  -0.4757  -0.4278  -0.3999  -0.3905

                    Cartesian Multipole Moments
 -----------------------------------------------------------------
    Charge (ESU x 10^10)
                -0.0000
    Dipole Moment (Debye)
         X       0.0000      Y      -0.0053      Z      -0.2457
       Tot       0.2457
    Quadrupole Moments (Debye-Ang)
        XX     -21.8254     XY      -0.0000     YY     -21.4478
        XZ       0.0000     YZ      -0.0127     ZZ     -21.8425

 Total job time:  27.38s(wall), 73.40s(cpu)
        *  Thank you very much for using Q-Chem.  Have a nice day.  *
