 Q-Chem 5.3 (devel), Q-Chem, Inc., Pleasanton, CA (2020)
 Q-Chem 5.3.0 for Intel X86 EM64T Linux

User input:
--------------------------------------------------------------
$rem
   JOBTYPE  sp
   EXCHANGE   omegaB97X-D
   BASIS   6-311+G(2df,2pd)
   UNRESTRICTED   False
   max_scf_cycles   250
   geom_opt_max_cycles   1500
   basis2 6-31G*
   scf_algorithm rca_diis
   SYM_IGNORE  TRUE
   print_input   true
   geom_opt_dmax   80
   pop_mulliken false
   XC_GRID 000075000302
$end

$molecule
0 1
C       1.2434218426     0.0430368062     0.2802250966
C       -0.0153870382     0.0020667022     -0.5883282519
H       1.2950943488     -0.8369419824     0.9246515181
H       1.3253120520     1.0421454938     0.7027595705
H       2.1725478126     -0.1543666372     -0.2623909662
C       -1.2893432588     -0.0363812069     0.2365384816
H       0.0486018113     -0.8711484550     -1.2419011977
H       -0.0298800685     0.8748090547     -1.2454945271
H       -1.3127686735     -0.9158045246     0.8831438974
H       -2.1350293619     0.1723877255     -0.4137104511
H       -1.3025695272     0.6801976899     1.0655518487
$end
--------------------------------------------------------------

             Standard Nuclear Orientation (Angstroms)
    I     Atom           X                Y                Z
 ----------------------------------------------------------------
    1      C       1.2434218426     0.0430368062     0.2802250966
    2      C      -0.0153870382     0.0020667022    -0.5883282519
    3      H       1.2950943488    -0.8369419824     0.9246515181
    4      H       1.3253120520     1.0421454938     0.7027595705
    5      H       2.1725478126    -0.1543666372    -0.2623909662
    6      C      -1.2893432588    -0.0363812069     0.2365384816
    7      H       0.0486018113    -0.8711484550    -1.2419011977
    8      H      -0.0298800685     0.8748090547    -1.2454945271
    9      H      -1.3127686735    -0.9158045246     0.8831438974
   10      H      -2.1350293619     0.1723877255    -0.4137104511
   11      H      -1.3025695272     0.6801976899     1.0655518487
 ----------------------------------------------------------------

    7    -119.0884526087      5.32E-06 Convergence criterion met
    6    -119.1321432480      3.95E-06 Convergence criterion met
 Total energy in the final basis set = -119.13214325

                    Orbital Energies (a.u.)
 --------------------------------------------------------------

 Alpha MOs
 -- Occupied --
-10.2740 -10.2655 -10.2651  -0.8818  -0.7787  -0.6793  -0.5504  -0.5282
 -0.4835  -0.4633  -0.4228  -0.4081  -0.3988

                    Cartesian Multipole Moments
 -----------------------------------------------------------------
    Charge (ESU x 10^10)
                 0.0000
    Dipole Moment (Debye)
         X       0.0809      Y      -0.0064      Z      -0.0709
       Tot       0.1077
    Quadrupole Moments (Debye-Ang)
        XX     -22.2268     XY      -0.5144     YY     -21.3305
        XZ      -0.0032     YZ      -0.2290     ZZ     -21.9010

 Total job time:  26.64s(wall), 72.66s(cpu)
        *  Thank you very much for using Q-Chem.  Have a nice day.  *
