 Q-Chem 5.3 (devel), Q-Chem, Inc., Pleasanton, CA (2020)
 Q-Chem 5.3.0 for Intel X86 EM64T Linux

User input:
--------------------------------------------------------------
$rem
   JOBTYPE  sp
   EXCHANGE   omegaB97X-D
   BASIS   6-311+G(2df,2pd)
   UNRESTRICTED   False
   max_scf_cycles   250
   geom_opt_max_cycles   1500
   basis2 6-31G*
   scf_algorithm rca_diis
   SYM_IGNORE  TRUE
   print_input   true
   geom_opt_dmax   80
   pop_mulliken false
   XC_GRID 000075000302
$end

$molecule
0 1
C       1.2443659601     -0.0412696868     0.2720531806
C       -0.0227665292     0.0058328436     -0.5932260268
H       1.1079290761     -0.9455882885     0.8514525411
H       1.4937350921     0.9057373090     0.7662873207
H       2.1688683225     0.2180987990     -0.2525489849
C       -1.2876165887     0.0591413164     0.2352962431
H       -0.0321209251     -0.8710348911     -1.2449711317
H       0.0687842577     0.8736591505     -1.2506848155
H       -1.4964298696     -0.7643501033     0.9357735262
H       -2.1208127650     -0.2335300362     -0.3981198785
H       -1.1239360915     0.7933042535     1.0197330448
$end
--------------------------------------------------------------

             Standard Nuclear Orientation (Angstroms)
    I     Atom           X                Y                Z
 ----------------------------------------------------------------
    1      C       1.2443659601    -0.0412696868     0.2720531806
    2      C      -0.0227665292     0.0058328436    -0.5932260268
    3      H       1.1079290761    -0.9455882885     0.8514525411
    4      H       1.4937350921     0.9057373090     0.7662873207
    5      H       2.1688683225     0.2180987990    -0.2525489849
    6      C      -1.2876165887     0.0591413164     0.2352962431
    7      H      -0.0321209251    -0.8710348911    -1.2449711317
    8      H       0.0687842577     0.8736591505    -1.2506848155
    9      H      -1.4964298696    -0.7643501033     0.9357735262
   10      H      -2.1208127650    -0.2335300362    -0.3981198785
   11      H      -1.1239360915     0.7933042535     1.0197330448
 ----------------------------------------------------------------

    7    -119.0439951326      7.48E-06 Convergence criterion met
    6    -119.0902534563      4.24E-06 Convergence criterion met
 Total energy in the final basis set = -119.09025346

                    Orbital Energies (a.u.)
 --------------------------------------------------------------

 Alpha MOs
 -- Occupied --
-10.2749 -10.2665 -10.2660  -0.8845  -0.7844  -0.6841  -0.5614  -0.5487
 -0.4828  -0.4450  -0.4340  -0.4013  -0.3711

                    Cartesian Multipole Moments
 -----------------------------------------------------------------
    Charge (ESU x 10^10)
                -0.0000
    Dipole Moment (Debye)
         X       0.1053      Y      -0.0391      Z      -0.0279
       Tot       0.1158
    Quadrupole Moments (Debye-Ang)
        XX     -22.0923     XY       2.0170     YY     -21.5413
        XZ      -0.0920     YZ      -0.0127     ZZ     -22.0764

 Total job time:  27.77s(wall), 75.25s(cpu)
        *  Thank you very much for using Q-Chem.  Have a nice day.  *
