 Q-Chem 5.2 (devel), Q-Chem, Inc., Pleasanton, CA (2019)
 Q-Chem 5.2.2 for Intel X86 EM64T Linux

User input:
--------------------------------------------------------------
$rem
   JOBTYPE  sp
   EXCHANGE   omegaB97X-D
   BASIS   6-311+G(2df,2pd)
   max_scf_cycles   250
   geom_opt_max_cycles   1500
   basis2 6-31G*
   scf_algorithm rca_diis
   SYM_IGNORE  TRUE
   print_input   true
   geom_opt_dmax   80
   pop_mulliken false
   XC_GRID 000075000302
$end

$molecule
0 1
C       1.2644325805     -0.0820768118     0.2562463938
C       -0.0035214787     -0.0008149925     -0.5883941499
H       1.3239836738     -0.9108346462     0.9640009046
H       1.2832275309     0.8394729227     0.8430244934
H       2.1582366191     -0.0284823865     -0.3657762322
C       -1.2644859447     0.0811273299     0.2607070346
H       0.2569967974     -0.8441799814     -1.2323056279
H       -0.2468919191     0.8464292908     -1.2339205192
H       -1.2848096969     -0.8473282380     0.8356904899
H       -2.1632802089     0.0272990641     -0.3547975101
H       -1.3238880142     0.9193891150     0.9565697419
--------------------------------------------------------------

             Standard Nuclear Orientation (Angstroms)
    I     Atom           X                Y                Z
 ----------------------------------------------------------------
    1      C       1.2644325805    -0.0820768118     0.2562463938
    2      C      -0.0035214787    -0.0008149925    -0.5883941499
    3      H       1.3239836738    -0.9108346462     0.9640009046
    4      H       1.2832275309     0.8394729227     0.8430244934
    5      H       2.1582366191    -0.0284823865    -0.3657762322
    6      C      -1.2644859447     0.0811273299     0.2607070346
    7      H       0.2569967974    -0.8441799814    -1.2323056279
    8      H      -0.2468919191     0.8464292908    -1.2339205192
    9      H      -1.2848096969    -0.8473282380     0.8356904899
   10      H      -2.1632802089     0.0272990641    -0.3547975101
   11      H      -1.3238880142     0.9193891150     0.9565697419
 ----------------------------------------------------------------

    7    -119.0752229631      5.56E-06 Convergence criterion met
    6    -119.1191385279      4.18E-06 Convergence criterion met
 Total energy in the final basis set = -119.11913853

                    Orbital Energies (a.u.)
 --------------------------------------------------------------

 Alpha MOs
 -- Occupied --
-10.2738 -10.2668 -10.2666  -0.8844  -0.7806  -0.6775  -0.5489  -0.5258
 -0.4956  -0.4687  -0.4303  -0.4098  -0.3754

                    Cartesian Multipole Moments
 -----------------------------------------------------------------
    Charge (ESU x 10^10)
                -0.0000
    Dipole Moment (Debye)
         X      -0.0034      Y       0.0023      Z      -0.0436
       Tot       0.0438
    Quadrupole Moments (Debye-Ang)
        XX     -22.0296     XY      -0.6963     YY     -21.5150
        XZ      -0.0236     YZ      -0.0018     ZZ     -21.9820

 Total job time:  50.75s(wall), 140.28s(cpu)
        *  Thank you very much for using Q-Chem.  Have a nice day.  *
