 Q-Chem 5.3 (devel), Q-Chem, Inc., Pleasanton, CA (2020)
 Q-Chem 5.3.0 for Intel X86 EM64T Linux

User input:
--------------------------------------------------------------
$rem
   JOBTYPE  sp
   EXCHANGE   omegaB97X-D
   BASIS   6-311+G(2df,2pd)
   UNRESTRICTED   False
   max_scf_cycles   250
   geom_opt_max_cycles   1500
   basis2 6-31G*
   scf_algorithm rca_diis
   SYM_IGNORE  TRUE
   print_input   true
   geom_opt_dmax   80
   pop_mulliken false
   XC_GRID 000075000302
$end

$molecule
0 1
C       1.2547308321     0.0718648076     0.2663682892
C       -0.0000001795     -0.0565324131     -0.6234087215
H       1.0830000225     -0.7736105016     0.9418674461
H       1.5470161844     0.9050700228     0.9018579688
H       2.0798906484     -0.2699218099     -0.3601639541
C       -1.2547312412     0.0718648417     0.2663681760
H       -0.0000008110     -0.7528086546     -1.4651015478
H       0.0000009849     0.9425372255     -1.0703040697
H       -1.0830003108     -0.7736105108     0.9418672284
H       -2.0798908026     -0.2699224033     -0.3601640329
H       -1.5470153877     0.9050700618     0.9018582364
$end
--------------------------------------------------------------

             Standard Nuclear Orientation (Angstroms)
    I     Atom           X                Y                Z
 ----------------------------------------------------------------
    1      C       1.2547308321     0.0718648076     0.2663682892
    2      C      -0.0000001795    -0.0565324131    -0.6234087215
    3      H       1.0830000225    -0.7736105016     0.9418674461
    4      H       1.5470161844     0.9050700228     0.9018579688
    5      H       2.0798906484    -0.2699218099    -0.3601639541
    6      C      -1.2547312412     0.0718648417     0.2663681760
    7      H      -0.0000008110    -0.7528086546    -1.4651015478
    8      H       0.0000009849     0.9425372255    -1.0703040697
    9      H      -1.0830003108    -0.7736105108     0.9418672284
   10      H      -2.0798908026    -0.2699224033    -0.3601640329
   11      H      -1.5470153877     0.9050700618     0.9018582364
 ----------------------------------------------------------------

    7    -119.0602622172      6.27E-06 Convergence criterion met
    5    -119.1045618114      9.39E-06 Convergence criterion met
 Total energy in the final basis set = -119.10456181

                    Orbital Energies (a.u.)
 --------------------------------------------------------------

 Alpha MOs
 -- Occupied --
-10.2807 -10.2660 -10.2660  -0.8826  -0.7758  -0.6822  -0.5434  -0.5252
 -0.5010  -0.4512  -0.4451  -0.3995  -0.3731

                    Cartesian Multipole Moments
 -----------------------------------------------------------------
    Charge (ESU x 10^10)
                -0.0000
    Dipole Moment (Debye)
         X       0.0000      Y       0.0136      Z      -0.1298
       Tot       0.1305
    Quadrupole Moments (Debye-Ang)
        XX     -22.5786     XY       0.0000     YY     -21.5447
        XZ       0.0000     YZ       1.2440     ZZ     -21.5159

 Total job time:  22.88s(wall), 63.35s(cpu)
        *  Thank you very much for using Q-Chem.  Have a nice day.  *
