 Q-Chem 5.3 (devel), Q-Chem, Inc., Pleasanton, CA (2020)
 Q-Chem 5.3.0 for Intel X86 EM64T Linux

User input:
--------------------------------------------------------------
$rem
   JOBTYPE  sp
   EXCHANGE   omegaB97X-D
   BASIS   6-311+G(2df,2pd)
   UNRESTRICTED   False
   max_scf_cycles   250
   geom_opt_max_cycles   1500
   basis2 6-31G*
   scf_algorithm rca_diis
   SYM_IGNORE  TRUE
   print_input   true
   geom_opt_dmax   80
   pop_mulliken false
   XC_GRID 000075000302
$end

$molecule
0 1
C       1.2561641778     0.0001622567     0.2304962574
C       -0.0000015896     -0.0004651477     -0.6053543123
H       1.3110096570     -1.0246581115     0.9874315866
H       1.3092920632     1.0241512805     0.9884426918
H       2.2872582756     0.0014230959     -0.4659121006
C       -1.2561679113     0.0001618997     0.2304987270
H       -0.0000019557     -0.8806112132     -1.2665243322
H       -0.0000021410     0.8789182434     -1.2679857965
H       -1.3110104391     -1.0246397139     0.9874197439
H       -2.2872466642     0.0014230728     -0.4658993144
H       -1.3092935332     1.0241350034     0.9884318682
$end
--------------------------------------------------------------

             Standard Nuclear Orientation (Angstroms)
    I     Atom           X                Y                Z
 ----------------------------------------------------------------
    1      C       1.2561641778     0.0001622567     0.2304962574
    2      C      -0.0000015896    -0.0004651477    -0.6053543123
    3      H       1.3110096570    -1.0246581115     0.9874315866
    4      H       1.3092920632     1.0241512805     0.9884426918
    5      H       2.2872582756     0.0014230959    -0.4659121006
    6      C      -1.2561679113     0.0001618997     0.2304987270
    7      H      -0.0000019557    -0.8806112132    -1.2665243322
    8      H      -0.0000021410     0.8789182434    -1.2679857965
    9      H      -1.3110104391    -1.0246397139     0.9874197439
   10      H      -2.2872466642     0.0014230728    -0.4658993144
   11      H      -1.3092935332     1.0241350034     0.9884318682
 ----------------------------------------------------------------

    6    -119.0246499817      7.41E-05 Convergence criterion met
    5    -119.0646497742      8.94E-06 Convergence criterion met
 Total energy in the final basis set = -119.06464977

                    Orbital Energies (a.u.)
 --------------------------------------------------------------

 Alpha MOs
 -- Occupied --
-10.3197 -10.3197 -10.2861  -0.8802  -0.7442  -0.6536  -0.5382  -0.5127
 -0.4676  -0.4301  -0.4115  -0.4106  -0.3953

                    Cartesian Multipole Moments
 -----------------------------------------------------------------
    Charge (ESU x 10^10)
                 0.0000
    Dipole Moment (Debye)
         X      -0.0000      Y      -0.0001      Z      -0.4015
       Tot       0.4015
    Quadrupole Moments (Debye-Ang)
        XX     -23.4594     XY       0.0000     YY     -22.1003
        XZ      -0.0000     YZ       0.0000     ZZ     -22.5449

 Total job time:  23.43s(wall), 63.50s(cpu)
        *  Thank you very much for using Q-Chem.  Have a nice day.  *
