 Q-Chem 5.3 (devel), Q-Chem, Inc., Pleasanton, CA (2020)
 Q-Chem 5.3.0 for Intel X86 EM64T Linux

User input:
--------------------------------------------------------------
$rem
   JOBTYPE  sp
   EXCHANGE   omegaB97X-D
   BASIS   6-311+G(2df,2pd)
   UNRESTRICTED   False
   max_scf_cycles   250
   geom_opt_max_cycles   1500
   basis2 6-31G*
   scf_algorithm rca_diis
   SYM_IGNORE  TRUE
   print_input   true
   geom_opt_dmax   80
   pop_mulliken false
   XC_GRID 000075000302
$end

$molecule
0 1
C       1.2910402893     0.1602999930     0.2115016985
C       0.0174334710     -0.0030535483     -0.5838986179
H       1.0330028966     -0.8125966758     0.6474511070
H       1.4323256396     0.8069150350     1.0755540140
H       2.2310154138     -0.0351127679     -0.3021579347
C       -1.2290820840     -0.1337144838     0.3068976747
H       0.3104976904     -0.8314557935     -1.2332211139
H       -0.4094194068     0.7645900787     -1.2337268152
H       -1.5437761030     -0.8314610191     1.0784904801
H       -2.0521797555     0.0621574994     -0.3836157969
H       -1.0808581118     0.8534323485     0.7577703234
$end
--------------------------------------------------------------

             Standard Nuclear Orientation (Angstroms)
    I     Atom           X                Y                Z
 ----------------------------------------------------------------
    1      C       1.2910402893     0.1602999930     0.2115016985
    2      C       0.0174334710    -0.0030535483    -0.5838986179
    3      H       1.0330028966    -0.8125966758     0.6474511070
    4      H       1.4323256396     0.8069150350     1.0755540140
    5      H       2.2310154138    -0.0351127679    -0.3021579347
    6      C      -1.2290820840    -0.1337144838     0.3068976747
    7      H       0.3104976904    -0.8314557935    -1.2332211139
    8      H      -0.4094194068     0.7645900787    -1.2337268152
    9      H      -1.5437761030    -0.8314610191     1.0784904801
   10      H      -2.0521797555     0.0621574994    -0.3836157969
   11      H      -1.0808581118     0.8534323485     0.7577703234
 ----------------------------------------------------------------

    7    -119.0457173526      5.54E-06 Convergence criterion met
    6    -119.0907164612      4.58E-06 Convergence criterion met
 Total energy in the final basis set = -119.09071646

                    Orbital Energies (a.u.)
 --------------------------------------------------------------

 Alpha MOs
 -- Occupied --
-10.2855 -10.2684 -10.2663  -0.8965  -0.7863  -0.6780  -0.5606  -0.5360
 -0.4778  -0.4673  -0.4227  -0.4034  -0.3873

                    Cartesian Multipole Moments
 -----------------------------------------------------------------
    Charge (ESU x 10^10)
                 0.0000
    Dipole Moment (Debye)
         X      -0.0437      Y      -0.0987      Z       0.0106
       Tot       0.1085
    Quadrupole Moments (Debye-Ang)
        XX     -21.8491     XY      -0.2411     YY     -22.0461
        XZ      -0.0316     YZ       0.1291     ZZ     -21.8408

 Total job time:  27.24s(wall), 74.23s(cpu)
        *  Thank you very much for using Q-Chem.  Have a nice day.  *
