 Q-Chem 5.3 (devel), Q-Chem, Inc., Pleasanton, CA (2020)
 Q-Chem 5.3.0 for Intel X86 EM64T Linux

User input:
--------------------------------------------------------------
$rem
   JOBTYPE  sp
   EXCHANGE   omegaB97X-D
   BASIS   6-311+G(2df,2pd)
   UNRESTRICTED   False
   max_scf_cycles   250
   geom_opt_max_cycles   1500
   basis2 6-31G*
   scf_algorithm rca_diis
   SYM_IGNORE  TRUE
   print_input   true
   geom_opt_dmax   80
   pop_mulliken false
   XC_GRID 000075000302
$end

$molecule
0 1
C       1.2651780186     -0.0133499887     0.2720245279
C       -0.0000000056     -0.0127656551     -0.5689142109
H       1.2743999850     -0.9033362156     0.9016615713
H       1.3480455247     0.8900990087     0.8804804076
H       2.1735115936     0.0426412789     -0.3300139381
C       -1.2651779810     -0.0133502366     0.2720245244
H       0.0000002076     -0.8498811602     -1.2733424614
H       -0.0000001255     0.8305384909     -1.2650036677
H       -1.2743995861     -0.9033364806     0.9016614660
H       -2.1735115497     0.0426430423     -0.3300138335
H       -1.3480461423     0.8900985820     0.8804806334
$end
--------------------------------------------------------------

             Standard Nuclear Orientation (Angstroms)
    I     Atom           X                Y                Z
 ----------------------------------------------------------------
    1      C       1.2651780186    -0.0133499887     0.2720245279
    2      C      -0.0000000056    -0.0127656551    -0.5689142109
    3      H       1.2743999850    -0.9033362156     0.9016615713
    4      H       1.3480455247     0.8900990087     0.8804804076
    5      H       2.1735115936     0.0426412789    -0.3300139381
    6      C      -1.2651779810    -0.0133502366     0.2720245244
    7      H       0.0000002076    -0.8498811602    -1.2733424614
    8      H      -0.0000001255     0.8305384909    -1.2650036677
    9      H      -1.2743995861    -0.9033364806     0.9016614660
   10      H      -2.1735115497     0.0426430423    -0.3300138335
   11      H      -1.3480461423     0.8900985820     0.8804806334
 ----------------------------------------------------------------

    7    -119.0994356244      4.80E-06 Convergence criterion met
    6    -119.1425989295      3.81E-06 Convergence criterion met
 Total energy in the final basis set = -119.14259893

                    Orbital Energies (a.u.)
 --------------------------------------------------------------

 Alpha MOs
 -- Occupied --
-10.2733 -10.2654 -10.2654  -0.8819  -0.7782  -0.6796  -0.5473  -0.5239
 -0.4777  -0.4698  -0.4192  -0.4179  -0.4028

                    Cartesian Multipole Moments
 -----------------------------------------------------------------
    Charge (ESU x 10^10)
                -0.0000
    Dipole Moment (Debye)
         X      -0.0000      Y       0.0667      Z      -0.1256
       Tot       0.1422
    Quadrupole Moments (Debye-Ang)
        XX     -21.9996     XY      -0.0000     YY     -21.3424
        XZ      -0.0000     YZ      -0.1231     ZZ     -21.9236

 Total job time:  27.61s(wall), 74.63s(cpu)
        *  Thank you very much for using Q-Chem.  Have a nice day.  *
