 Q-Chem 5.3 (devel), Q-Chem, Inc., Pleasanton, CA (2020)
 Q-Chem 5.3.0 for Intel X86 EM64T Linux

User input:
--------------------------------------------------------------
$rem
   JOBTYPE  sp
   EXCHANGE   omegaB97X-D
   BASIS   6-311+G(2df,2pd)
   UNRESTRICTED   False
   max_scf_cycles   250
   geom_opt_max_cycles   1500
   basis2 6-31G*
   scf_algorithm rca_diis
   SYM_IGNORE  TRUE
   print_input   true
   geom_opt_dmax   80
   pop_mulliken false
   XC_GRID 000075000302
$end

$molecule
0 1
C       1.2681058836     -0.0297911722     0.2430783665
C       0.0000000613     0.0221078560     -0.5829428074
H       1.4021292701     -0.9146127481     0.8652464642
H       1.1397312448     0.8317781881     0.9046965705
H       2.1821668944     0.1681801282     -0.3171527264
C       -1.2681057907     -0.0297912751     0.2430783343
H       0.0000004535     -0.9312461987     -1.1169160420
H       -0.0000005432     0.7980289759     -1.3508336133
H       -1.4021291759     -0.9146128248     0.8652464419
H       -2.1821666696     0.1681814617     -0.3171524819
H       -1.1397316889     0.8317782749     0.9046965123
$end
--------------------------------------------------------------

             Standard Nuclear Orientation (Angstroms)
    I     Atom           X                Y                Z
 ----------------------------------------------------------------
    1      C       1.2681058836    -0.0297911722     0.2430783665
    2      C       0.0000000613     0.0221078560    -0.5829428074
    3      H       1.4021292701    -0.9146127481     0.8652464642
    4      H       1.1397312448     0.8317781881     0.9046965705
    5      H       2.1821668944     0.1681801282    -0.3171527264
    6      C      -1.2681057907    -0.0297912751     0.2430783343
    7      H       0.0000004535    -0.9312461987    -1.1169160420
    8      H      -0.0000005432     0.7980289759    -1.3508336133
    9      H      -1.4021291759    -0.9146128248     0.8652464419
   10      H      -2.1821666696     0.1681814617    -0.3171524819
   11      H      -1.1397316889     0.8317782749     0.9046965123
 ----------------------------------------------------------------

    7    -119.0906655341      4.82E-06 Convergence criterion met
    6    -119.1341864541      4.16E-06 Convergence criterion met
 Total energy in the final basis set = -119.13418645

                    Orbital Energies (a.u.)
 --------------------------------------------------------------

 Alpha MOs
 -- Occupied --
-10.2728 -10.2655 -10.2655  -0.8863  -0.7788  -0.6773  -0.5499  -0.5304
 -0.4851  -0.4561  -0.4289  -0.4266  -0.3857

                    Cartesian Multipole Moments
 -----------------------------------------------------------------
    Charge (ESU x 10^10)
                 0.0000
    Dipole Moment (Debye)
         X      -0.0000      Y      -0.0031      Z      -0.0891
       Tot       0.0892
    Quadrupole Moments (Debye-Ang)
        XX     -21.9155     XY      -0.0000     YY     -21.3705
        XZ      -0.0000     YZ      -0.6829     ZZ     -22.1404

 Total job time:  29.27s(wall), 78.30s(cpu)
        *  Thank you very much for using Q-Chem.  Have a nice day.  *
