 Q-Chem 5.3 (devel), Q-Chem, Inc., Pleasanton, CA (2020)
 Q-Chem 5.3.0 for Intel X86 EM64T Linux

User input:
--------------------------------------------------------------
$rem
   JOBTYPE  sp
   EXCHANGE   omegaB97X-D
   BASIS   6-311+G(2df,2pd)
   UNRESTRICTED   False
   max_scf_cycles   250
   geom_opt_max_cycles   1500
   basis2 6-31G*
   scf_algorithm rca_diis
   SYM_IGNORE  TRUE
   print_input   true
   geom_opt_dmax   80
   pop_mulliken false
   XC_GRID 000075000302
$end

$molecule
0 1
C       1.2484708862     -0.0305392871     0.3365070646
C       0.0000000668     0.0561619282     -0.6202585114
H       1.4077950764     -0.8965072141     0.9768215274
H       1.4690789091     0.8948634248     0.8715911929
H       2.0271196908     -0.0597358687     -0.4321684217
C       -1.2484709616     -0.0305393714     0.3365071483
H       -0.0000003304     -0.8143907162     -1.2833195830
H       0.0000001195     0.9420669933     -1.2608797351
H       -1.4077949967     -0.8965073439     0.9768215359
H       -2.0271194816     -0.0597351270     -0.4321686024
H       -1.4690790392     0.8948632481     0.8715914035
$end
--------------------------------------------------------------

             Standard Nuclear Orientation (Angstroms)
    I     Atom           X                Y                Z
 ----------------------------------------------------------------
    1      C       1.2484708862    -0.0305392871     0.3365070646
    2      C       0.0000000668     0.0561619282    -0.6202585114
    3      H       1.4077950764    -0.8965072141     0.9768215274
    4      H       1.4690789091     0.8948634248     0.8715911929
    5      H       2.0271196908    -0.0597358687    -0.4321684217
    6      C      -1.2484709616    -0.0305393714     0.3365071483
    7      H      -0.0000003304    -0.8143907162    -1.2833195830
    8      H       0.0000001195     0.9420669933    -1.2608797351
    9      H      -1.4077949967    -0.8965073439     0.9768215359
   10      H      -2.0271194816    -0.0597351270    -0.4321686024
   11      H      -1.4690790392     0.8948632481     0.8715914035
 ----------------------------------------------------------------

    7    -119.0780484093      5.70E-06 Convergence criterion met
    5    -119.1212295365      8.41E-06 Convergence criterion met
 Total energy in the final basis set = -119.12122954

                    Orbital Energies (a.u.)
 --------------------------------------------------------------

 Alpha MOs
 -- Occupied --
-10.2866 -10.2649 -10.2649  -0.8703  -0.7729  -0.6824  -0.5396  -0.5033
 -0.4906  -0.4668  -0.4426  -0.4158  -0.3697

                    Cartesian Multipole Moments
 -----------------------------------------------------------------
    Charge (ESU x 10^10)
                 0.0000
    Dipole Moment (Debye)
         X       0.0000      Y       0.0161      Z      -0.2264
       Tot       0.2270
    Quadrupole Moments (Debye-Ang)
        XX     -23.0958     XY      -0.0000     YY     -21.1037
        XZ       0.0000     YZ      -0.3566     ZZ     -21.2907

 Total job time:  25.11s(wall), 67.09s(cpu)
        *  Thank you very much for using Q-Chem.  Have a nice day.  *
