 Q-Chem 5.3 (devel), Q-Chem, Inc., Pleasanton, CA (2020)
 Q-Chem 5.3.0 for Intel X86 EM64T Linux

User input:
--------------------------------------------------------------
$rem
   JOBTYPE  sp
   EXCHANGE   omegaB97X-D
   BASIS   6-311+G(2df,2pd)
   UNRESTRICTED   False
   max_scf_cycles   250
   geom_opt_max_cycles   1500
   basis2 6-31G*
   scf_algorithm rca_diis
   SYM_IGNORE  TRUE
   print_input   true
   geom_opt_dmax   80
   pop_mulliken false
   XC_GRID 000075000302
$end

$molecule
0 1
C       1.2711068341     0.0109376982     0.2362207654
C       -0.0000000221     -0.0122938835     -0.5729007095
H       1.2620880409     -0.8720001134     0.8802823097
H       1.2638022264     0.8749633367     0.9039451170
H       2.1994643227     0.0034688200     -0.3332213462
C       -1.2711068114     0.0109376940     0.2362207332
H       0.0000001045     -0.8834449495     -1.2313854009
H       -0.0000001182     0.8609992732     -1.2291225259
H       -1.2620880774     -0.8720000882     0.8802823030
H       -2.1994643800     0.0034694963     -0.3332212815
H       -1.2638021802     0.8749633823     0.9039450547
$end
--------------------------------------------------------------

             Standard Nuclear Orientation (Angstroms)
    I     Atom           X                Y                Z
 ----------------------------------------------------------------
    1      C       1.2711068341     0.0109376982     0.2362207654
    2      C      -0.0000000221    -0.0122938835    -0.5729007095
    3      H       1.2620880409    -0.8720001134     0.8802823097
    4      H       1.2638022264     0.8749633367     0.9039451170
    5      H       2.1994643227     0.0034688200    -0.3332213462
    6      C      -1.2711068114     0.0109376940     0.2362207332
    7      H       0.0000001045    -0.8834449495    -1.2313854009
    8      H      -0.0000001182     0.8609992732    -1.2291225259
    9      H      -1.2620880774    -0.8720000882     0.8802823030
   10      H      -2.1994643800     0.0034694963    -0.3332212815
   11      H      -1.2638021802     0.8749633823     0.9039450547
 ----------------------------------------------------------------

    7    -119.1001093815      4.46E-06 Convergence criterion met
    6    -119.1433589772      4.08E-06 Convergence criterion met
 Total energy in the final basis set = -119.14335898

                    Orbital Energies (a.u.)
 --------------------------------------------------------------

 Alpha MOs
 -- Occupied --
-10.2710 -10.2651 -10.2651  -0.8866  -0.7795  -0.6764  -0.5488  -0.5313
 -0.4806  -0.4612  -0.4337  -0.4119  -0.4007

                    Cartesian Multipole Moments
 -----------------------------------------------------------------
    Charge (ESU x 10^10)
                 0.0000
    Dipole Moment (Debye)
         X      -0.0000      Y      -0.0084      Z      -0.0651
       Tot       0.0656
    Quadrupole Moments (Debye-Ang)
        XX     -21.8352     XY      -0.0000     YY     -21.4665
        XZ      -0.0000     YZ       0.1120     ZZ     -22.0765

 Total job time:  26.60s(wall), 72.83s(cpu)
        *  Thank you very much for using Q-Chem.  Have a nice day.  *
