 Q-Chem 5.2 (devel), Q-Chem, Inc., Pleasanton, CA (2019)
 Q-Chem 5.2.2 for Intel X86 EM64T Linux

User input:
--------------------------------------------------------------
$rem
   JOBTYPE  sp
   EXCHANGE   omegaB97X-D
   BASIS   6-311+G(2df,2pd)
   max_scf_cycles   250
   geom_opt_max_cycles   1500
   basis2 6-31G*
   scf_algorithm rca_diis
   SYM_IGNORE  TRUE
   print_input   true
   geom_opt_dmax   80
   pop_mulliken false
   XC_GRID 000075000302
$end

$molecule
0 1
C       1.2210511675     0.0145403097     0.3065628297
C       -0.0307585971     -0.0048179519     -0.5829721140
H       1.4180760846     -0.9853601809     0.6987848469
H       1.2240267110     1.0002480908     0.7572809135
H       2.1915767990     -0.1066184433     -0.1910848220
C       -1.3116802793     -0.0294796400     0.2205671463
H       0.0572635021     -0.8742138370     -1.2388379362
H       -0.0207580008     0.8712857353     -1.2357348344
H       -1.2276212146     -0.7077529472     1.0719007425
H       -2.1137072515     0.1118224389     -0.4941868538
H       -1.4074689814     0.7103470915     1.0287651004
--------------------------------------------------------------

             Standard Nuclear Orientation (Angstroms)
    I     Atom           X                Y                Z
 ----------------------------------------------------------------
    1      C       1.2210511675     0.0145403097     0.3065628297
    2      C      -0.0307585971    -0.0048179519    -0.5829721140
    3      H       1.4180760846    -0.9853601809     0.6987848469
    4      H       1.2240267110     1.0002480908     0.7572809135
    5      H       2.1915767990    -0.1066184433    -0.1910848220
    6      C      -1.3116802793    -0.0294796400     0.2205671463
    7      H       0.0572635021    -0.8742138370    -1.2388379362
    8      H      -0.0207580008     0.8712857353    -1.2357348344
    9      H      -1.2276212146    -0.7077529472     1.0719007425
   10      H      -2.1137072515     0.1118224389    -0.4941868538
   11      H      -1.4074689814     0.7103470915     1.0287651004
 ----------------------------------------------------------------

    7    -119.0459922681      7.82E-06 Convergence criterion met
    6    -119.0922057453      4.11E-06 Convergence criterion met
 Total energy in the final basis set = -119.09220575

                    Orbital Energies (a.u.)
 --------------------------------------------------------------

 Alpha MOs
 -- Occupied --
-10.2745 -10.2666 -10.2657  -0.8840  -0.7842  -0.6845  -0.5586  -0.5440
 -0.4886  -0.4565  -0.4258  -0.3912  -0.3780

                    Cartesian Multipole Moments
 -----------------------------------------------------------------
    Charge (ESU x 10^10)
                 0.0000
    Dipole Moment (Debye)
         X       0.1914      Y       0.0338      Z      -0.0717
       Tot       0.2071
    Quadrupole Moments (Debye-Ang)
        XX     -22.0788     XY      -1.0224     YY     -21.6553
        XZ      -0.0734     YZ       0.0546     ZZ     -21.8971

 Total job time:  48.72s(wall), 136.04s(cpu)
        *  Thank you very much for using Q-Chem.  Have a nice day.  *
