 Q-Chem 5.3 (devel), Q-Chem, Inc., Pleasanton, CA (2020)
 Q-Chem 5.3.0 for Intel X86 EM64T Linux

User input:
--------------------------------------------------------------
$rem
   JOBTYPE  sp
   EXCHANGE   omegaB97X-D
   BASIS   6-311+G(2df,2pd)
   UNRESTRICTED   False
   max_scf_cycles   250
   geom_opt_max_cycles   1500
   basis2 6-31G*
   scf_algorithm rca_diis
   SYM_IGNORE  TRUE
   print_input   true
   geom_opt_dmax   80
   pop_mulliken false
   XC_GRID 000075000302
$end

$molecule
0 1
C       1.2616890265     0.0000808517     0.2451154172
C       -0.0000007749     -0.0002219601     -0.5961579117
H       1.3077842123     -0.9528109575     0.9455884529
H       1.3069915854     0.9525669076     0.9460735852
H       2.2257416324     0.0006752866     -0.4131568586
C       -1.2616908522     0.0000806586     0.2451166523
H       -0.0000009547     -0.8772220964     -1.2546665524
H       -0.0000010804     0.8764193678     -1.2553681180
H       -1.3077846771     -0.9528017352     0.9455825563
H       -2.2257358090     0.0006756275     -0.4131504303
H       -1.3069923688     0.9525587155     0.9460682261
$end
--------------------------------------------------------------

             Standard Nuclear Orientation (Angstroms)
    I     Atom           X                Y                Z
 ----------------------------------------------------------------
    1      C       1.2616890265     0.0000808517     0.2451154172
    2      C      -0.0000007749    -0.0002219601    -0.5961579117
    3      H       1.3077842123    -0.9528109575     0.9455884529
    4      H       1.3069915854     0.9525669076     0.9460735852
    5      H       2.2257416324     0.0006752866    -0.4131568586
    6      C      -1.2616908522     0.0000806586     0.2451166523
    7      H      -0.0000009547    -0.8772220964    -1.2546665524
    8      H      -0.0000010804     0.8764193678    -1.2553681180
    9      H      -1.3077846771    -0.9528017352     0.9455825563
   10      H      -2.2257358090     0.0006756275    -0.4131504303
   11      H      -1.3069923688     0.9525587155     0.9460682261
 ----------------------------------------------------------------

    7    -119.0816705011      1.25E-06 Convergence criterion met
    5    -119.1224415414      7.09E-06 Convergence criterion met
 Total energy in the final basis set = -119.12244154

                    Orbital Energies (a.u.)
 --------------------------------------------------------------

 Alpha MOs
 -- Occupied --
-10.2936 -10.2936 -10.2799  -0.8792  -0.7587  -0.6651  -0.5409  -0.5176
 -0.4737  -0.4461  -0.4156  -0.4149  -0.4014

                    Cartesian Multipole Moments
 -----------------------------------------------------------------
    Charge (ESU x 10^10)
                 0.0000
    Dipole Moment (Debye)
         X      -0.0000      Y      -0.0000      Z      -0.2349
       Tot       0.2349
    Quadrupole Moments (Debye-Ang)
        XX     -22.8260     XY       0.0000     YY     -21.7410
        XZ      -0.0000     YZ      -0.0000     ZZ     -22.2193

 Total job time:  24.50s(wall), 65.95s(cpu)
        *  Thank you very much for using Q-Chem.  Have a nice day.  *
