 Q-Chem 5.3 (devel), Q-Chem, Inc., Pleasanton, CA (2020)
 Q-Chem 5.3.0 for Intel X86 EM64T Linux

User input:
--------------------------------------------------------------
$rem
   JOBTYPE  sp
   EXCHANGE   omegaB97X-D
   BASIS   6-311+G(2df,2pd)
   UNRESTRICTED   False
   max_scf_cycles   250
   geom_opt_max_cycles   1500
   basis2 6-31G*
   scf_algorithm rca_diis
   SYM_IGNORE  TRUE
   print_input   true
   geom_opt_dmax   80
   pop_mulliken false
   XC_GRID 000075000302
$end

$molecule
0 1
C       1.2600883240     -0.0380405419     0.2956437638
C       -0.0000000214     -0.0373405453     -0.5352833000
H       1.2111308085     -0.9430467792     0.8956790058
H       1.4327201642     0.9009540820     0.8286121527
H       2.1852087132     0.1257711217     -0.2620675020
C       -1.2600882767     -0.0380412364     0.2956436680
H       0.0000006098     -0.7924544988     -1.3310515896
H       -0.0000002152     0.7385188589     -1.3083556116
H       -1.2111297117     -0.9430474981     0.8956785807
H       -2.1852083899     0.1257750176     -0.2620669330
H       -1.4327220653     0.9009526854     0.8286127840
$end
--------------------------------------------------------------

             Standard Nuclear Orientation (Angstroms)
    I     Atom           X                Y                Z
 ----------------------------------------------------------------
    1      C       1.2600883240    -0.0380405419     0.2956437638
    2      C      -0.0000000214    -0.0373405453    -0.5352833000
    3      H       1.2111308085    -0.9430467792     0.8956790058
    4      H       1.4327201642     0.9009540820     0.8286121527
    5      H       2.1852087132     0.1257711217    -0.2620675020
    6      C      -1.2600882767    -0.0380412364     0.2956436680
    7      H       0.0000006098    -0.7924544988    -1.3310515896
    8      H      -0.0000002152     0.7385188589    -1.3083556116
    9      H      -1.2111297117    -0.9430474981     0.8956785807
   10      H      -2.1852083899     0.1257750176    -0.2620669330
   11      H      -1.4327220653     0.9009526854     0.8286127840
 ----------------------------------------------------------------

    7    -119.0692477005      6.72E-06 Convergence criterion met
    6    -119.1142546707      3.78E-06 Convergence criterion met
 Total energy in the final basis set = -119.11425467

                    Orbital Energies (a.u.)
 --------------------------------------------------------------

 Alpha MOs
 -- Occupied --
-10.2724 -10.2663 -10.2663  -0.8848  -0.7822  -0.6866  -0.5647  -0.5154
 -0.4939  -0.4647  -0.4154  -0.4090  -0.3860

                    Cartesian Multipole Moments
 -----------------------------------------------------------------
    Charge (ESU x 10^10)
                -0.0000
    Dipole Moment (Debye)
         X      -0.0000      Y       0.2119      Z      -0.2130
       Tot       0.3004
    Quadrupole Moments (Debye-Ang)
        XX     -21.6474     XY      -0.0000     YY     -21.3781
        XZ      -0.0000     YZ      -0.3813     ZZ     -22.1381

 Total job time:  24.96s(wall), 69.55s(cpu)
        *  Thank you very much for using Q-Chem.  Have a nice day.  *
