 Q-Chem 5.3 (devel), Q-Chem, Inc., Pleasanton, CA (2020)
 Q-Chem 5.3.0 for Intel X86 EM64T Linux

User input:
--------------------------------------------------------------
$rem
   JOBTYPE  sp
   EXCHANGE   omegaB97X-D
   BASIS   6-311+G(2df,2pd)
   UNRESTRICTED   False
   max_scf_cycles   250
   geom_opt_max_cycles   1500
   basis2 6-31G*
   scf_algorithm rca_diis
   SYM_IGNORE  TRUE
   print_input   true
   geom_opt_dmax   80
   pop_mulliken false
   XC_GRID 000075000302
$end

$molecule
0 1
C       1.2774700293     0.0268798943     0.2491185178
C       0.0112409138     0.0013717721     -0.5886823280
H       1.4017409348     -0.8292670127     0.9227955035
H       1.2138876339     0.8457767169     0.9646674376
H       2.1484212824     -0.1143686386     -0.3885291330
C       -1.2563484611     -0.0226847815     0.2670296465
H       0.0157458242     -0.8732106929     -1.2435427325
H       -0.0342446305     0.8737804688     -1.2448767477
H       -1.2074878935     -0.9194741055     0.8798131242
H       -2.1714528084     0.1108808939     -0.3142567265
H       -1.3989728855     0.9003161512     0.8375084569
$end
--------------------------------------------------------------

             Standard Nuclear Orientation (Angstroms)
    I     Atom           X                Y                Z
 ----------------------------------------------------------------
    1      C       1.2774700293     0.0268798943     0.2491185178
    2      C       0.0112409138     0.0013717721    -0.5886823280
    3      H       1.4017409348    -0.8292670127     0.9227955035
    4      H       1.2138876339     0.8457767169     0.9646674376
    5      H       2.1484212824    -0.1143686386    -0.3885291330
    6      C      -1.2563484611    -0.0226847815     0.2670296465
    7      H       0.0157458242    -0.8732106929    -1.2435427325
    8      H      -0.0342446305     0.8737804688    -1.2448767477
    9      H      -1.2074878935    -0.9194741055     0.8798131242
   10      H      -2.1714528084     0.1108808939    -0.3142567265
   11      H      -1.3989728855     0.9003161512     0.8375084569
 ----------------------------------------------------------------

    7    -119.0886788161      5.28E-06 Convergence criterion met
    6    -119.1323629476      3.95E-06 Convergence criterion met
 Total energy in the final basis set = -119.13236295

                    Orbital Energies (a.u.)
 --------------------------------------------------------------

 Alpha MOs
 -- Occupied --
-10.2742 -10.2655 -10.2654  -0.8819  -0.7788  -0.6792  -0.5493  -0.5329
 -0.4823  -0.4555  -0.4281  -0.4141  -0.3940

                    Cartesian Multipole Moments
 -----------------------------------------------------------------
    Charge (ESU x 10^10)
                 0.0000
    Dipole Moment (Debye)
         X      -0.0372      Y      -0.0084      Z      -0.0729
       Tot       0.0822
    Quadrupole Moments (Debye-Ang)
        XX     -22.1483     XY      -0.9642     YY     -21.4047
        XZ       0.0356     YZ      -0.0024     ZZ     -21.9007

 Total job time:  27.98s(wall), 75.71s(cpu)
        *  Thank you very much for using Q-Chem.  Have a nice day.  *
