 Q-Chem 5.3 (devel), Q-Chem, Inc., Pleasanton, CA (2020)
 Q-Chem 5.3.0 for Intel X86 EM64T Linux

User input:
--------------------------------------------------------------
$rem
   JOBTYPE  sp
   EXCHANGE   omegaB97X-D
   BASIS   6-311+G(2df,2pd)
   UNRESTRICTED   False
   max_scf_cycles   250
   geom_opt_max_cycles   1500
   basis2 6-31G*
   scf_algorithm rca_diis
   SYM_IGNORE  TRUE
   print_input   true
   geom_opt_dmax   80
   pop_mulliken false
   XC_GRID 000075000302
$end

$molecule
0 1
C       1.2753364770     0.0486957688     0.1506715392
C       -0.0000001148     -0.0443675369     -0.5084655169
H       1.0543365482     -0.8175624788     0.7866396828
H       1.1295338821     0.8593444869     0.8684017128
H       2.2930378857     -0.0502633623     -0.2083226006
C       -1.2753363775     0.0486958113     0.1506713658
H       0.0000004915     -0.8820448036     -1.2054647468
H       -0.0000003354     0.8459832188     -1.1398052161
H       -1.0543367660     -0.8175624268     0.7866396539
H       -2.2930380926     -0.0502626885     -0.2083222749
H       -1.1295336589     0.8593446771     0.8684014195
$end
--------------------------------------------------------------

             Standard Nuclear Orientation (Angstroms)
    I     Atom           X                Y                Z
 ----------------------------------------------------------------
    1      C       1.2753364770     0.0486957688     0.1506715392
    2      C      -0.0000001148    -0.0443675369    -0.5084655169
    3      H       1.0543365482    -0.8175624788     0.7866396828
    4      H       1.1295338821     0.8593444869     0.8684017128
    5      H       2.2930378857    -0.0502633623    -0.2083226006
    6      C      -1.2753363775     0.0486958113     0.1506713658
    7      H       0.0000004915    -0.8820448036    -1.2054647468
    8      H      -0.0000003354     0.8459832188    -1.1398052161
    9      H      -1.0543367660    -0.8175624268     0.7866396539
   10      H      -2.2930380926    -0.0502626885    -0.2083222749
   11      H      -1.1295336589     0.8593446771     0.8684014195
 ----------------------------------------------------------------

    7    -119.0296802282      5.45E-06 Convergence criterion met
    6    -119.0762381177      4.32E-06 Convergence criterion met
 Total energy in the final basis set = -119.07623812

                    Orbital Energies (a.u.)
 --------------------------------------------------------------

 Alpha MOs
 -- Occupied --
-10.2664 -10.2663 -10.2654  -0.9190  -0.7950  -0.6731  -0.5690  -0.5593
 -0.4907  -0.4752  -0.4447  -0.4001  -0.3537

                    Cartesian Multipole Moments
 -----------------------------------------------------------------
    Charge (ESU x 10^10)
                 0.0000
    Dipole Moment (Debye)
         X      -0.0000      Y      -0.0702      Z      -0.0451
       Tot       0.0835
    Quadrupole Moments (Debye-Ang)
        XX     -20.5051     XY      -0.0000     YY     -21.9580
        XZ      -0.0000     YZ       0.6258     ZZ     -23.2387

 Total job time:  28.69s(wall), 77.65s(cpu)
        *  Thank you very much for using Q-Chem.  Have a nice day.  *
