 Q-Chem 5.3 (devel), Q-Chem, Inc., Pleasanton, CA (2020)
 Q-Chem 5.3.0 for Intel X86 EM64T Linux

User input:
--------------------------------------------------------------
$rem
   JOBTYPE  sp
   EXCHANGE   omegaB97X-D
   BASIS   6-311+G(2df,2pd)
   UNRESTRICTED   False
   max_scf_cycles   250
   geom_opt_max_cycles   1500
   basis2 6-31G*
   scf_algorithm rca_diis
   SYM_IGNORE  TRUE
   print_input   true
   geom_opt_dmax   80
   pop_mulliken false
   XC_GRID 000075000302
$end

$molecule
0 1
C       1.2998895549     -0.0523961984     0.2243656388
C       0.0232013749     0.0046652238     -0.5897275332
H       1.3152211195     -0.9304771897     0.8729794436
H       1.3073297867     0.5680722987     1.1300545680
H       2.1120014424     0.2630872372     -0.4227682050
C       -1.2307935233     0.0674278632     0.2896001725
H       -0.0729100046     -0.8677122899     -1.2404782431
H       0.0451645960     0.8759750065     -1.2485852154
H       -1.2889618325     -0.8115486808     0.9348953921
H       -2.1680489553     -0.2223456223     -0.1982980662
H       -1.3420936194     1.1052530178     0.5890070666
$end
--------------------------------------------------------------

             Standard Nuclear Orientation (Angstroms)
    I     Atom           X                Y                Z
 ----------------------------------------------------------------
    1      C       1.2998895549    -0.0523961984     0.2243656388
    2      C       0.0232013749     0.0046652238    -0.5897275332
    3      H       1.3152211195    -0.9304771897     0.8729794436
    4      H       1.3073297867     0.5680722987     1.1300545680
    5      H       2.1120014424     0.2630872372    -0.4227682050
    6      C      -1.2307935233     0.0674278632     0.2896001725
    7      H      -0.0729100046    -0.8677122899    -1.2404782431
    8      H       0.0451645960     0.8759750065    -1.2485852154
    9      H      -1.2889618325    -0.8115486808     0.9348953921
   10      H      -2.1680489553    -0.2223456223    -0.1982980662
   11      H      -1.3420936194     1.1052530178     0.5890070666
 ----------------------------------------------------------------

    7    -119.0698281849      6.32E-06 Convergence criterion met
    6    -119.1145557806      4.05E-06 Convergence criterion met
 Total energy in the final basis set = -119.11455578

                    Orbital Energies (a.u.)
 --------------------------------------------------------------

 Alpha MOs
 -- Occupied --
-10.2740 -10.2658 -10.2652  -0.8826  -0.7807  -0.6815  -0.5554  -0.5331
 -0.4854  -0.4615  -0.4249  -0.3989  -0.3894

                    Cartesian Multipole Moments
 -----------------------------------------------------------------
    Charge (ESU x 10^10)
                -0.0000
    Dipole Moment (Debye)
         X      -0.1280      Y      -0.0178      Z      -0.0514
       Tot       0.1391
    Quadrupole Moments (Debye-Ang)
        XX     -22.3017     XY       0.7643     YY     -21.2967
        XZ       0.0397     YZ      -0.5140     ZZ     -21.9723

 Total job time:  28.21s(wall), 75.94s(cpu)
        *  Thank you very much for using Q-Chem.  Have a nice day.  *
