 Q-Chem 5.3 (devel), Q-Chem, Inc., Pleasanton, CA (2020)
 Q-Chem 5.3.0 for Intel X86 EM64T Linux

User input:
--------------------------------------------------------------
$rem
   JOBTYPE  sp
   EXCHANGE   omegaB97X-D
   BASIS   6-311+G(2df,2pd)
   UNRESTRICTED   False
   max_scf_cycles   250
   geom_opt_max_cycles   1500
   basis2 6-31G*
   scf_algorithm rca_diis
   SYM_IGNORE  TRUE
   print_input   true
   geom_opt_dmax   80
   pop_mulliken false
   XC_GRID 000075000302
$end

$molecule
0 1
C       1.3407486911     -0.0581379873     0.1359925298
C       0.0543984828     0.0110560237     -0.5911068438
H       1.2828817813     -0.9676048989     0.7376011785
H       1.0984378052     0.7409043930     0.8429636376
H       2.3636218810     0.0859283125     -0.2044068826
C       -1.1752778246     0.0722415326     0.3812372333
H       -0.2418989605     -0.8365342957     -1.2136460358
H       -0.0376340281     0.8966449558     -1.2243674495
H       -1.2748115230     -0.7790208274     1.0575392961
H       -1.8595418765     -0.1394776223     -0.4447907830
H       -1.5509244893     0.9740010800     0.8640291385
$end
--------------------------------------------------------------

             Standard Nuclear Orientation (Angstroms)
    I     Atom           X                Y                Z
 ----------------------------------------------------------------
    1      C       1.3407486911    -0.0581379873     0.1359925298
    2      C       0.0543984828     0.0110560237    -0.5911068438
    3      H       1.2828817813    -0.9676048989     0.7376011785
    4      H       1.0984378052     0.7409043930     0.8429636376
    5      H       2.3636218810     0.0859283125    -0.2044068826
    6      C      -1.1752778246     0.0722415326     0.3812372333
    7      H      -0.2418989605    -0.8365342957    -1.2136460358
    8      H      -0.0376340281     0.8966449558    -1.2243674495
    9      H      -1.2748115230    -0.7790208274     1.0575392961
   10      H      -1.8595418765    -0.1394776223    -0.4447907830
   11      H      -1.5509244893     0.9740010800     0.8640291385
 ----------------------------------------------------------------

    7    -119.0651845578      5.16E-06 Convergence criterion met
    6    -119.1095339555      4.35E-06 Convergence criterion met
 Total energy in the final basis set = -119.10953396

                    Orbital Energies (a.u.)
 --------------------------------------------------------------

 Alpha MOs
 -- Occupied --
-10.2815 -10.2675 -10.2621  -0.8904  -0.7815  -0.6784  -0.5510  -0.5352
 -0.4844  -0.4659  -0.4162  -0.4023  -0.3993

                    Cartesian Multipole Moments
 -----------------------------------------------------------------
    Charge (ESU x 10^10)
                -0.0000
    Dipole Moment (Debye)
         X      -0.1091      Y       0.0285      Z      -0.0980
       Tot       0.1494
    Quadrupole Moments (Debye-Ang)
        XX     -22.0538     XY       0.0063     YY     -21.4180
        XZ      -0.0687     YZ      -0.0984     ZZ     -22.1270

 Total job time:  26.92s(wall), 73.58s(cpu)
        *  Thank you very much for using Q-Chem.  Have a nice day.  *
