 Q-Chem 5.3 (devel), Q-Chem, Inc., Pleasanton, CA (2020)
 Q-Chem 5.3.0 for Intel X86 EM64T Linux

User input:
--------------------------------------------------------------
$rem
   JOBTYPE  sp
   EXCHANGE   omegaB97X-D
   BASIS   6-311+G(2df,2pd)
   UNRESTRICTED   False
   max_scf_cycles   250
   geom_opt_max_cycles   1500
   basis2 6-31G*
   scf_algorithm rca_diis
   SYM_IGNORE  TRUE
   print_input   true
   geom_opt_dmax   80
   pop_mulliken false
   XC_GRID 000075000302
$end

$molecule
0 1
C       1.5271305564     -0.0064474267     0.2693873249
C       -0.0000000788     0.0229661771     -0.0598477352
H       1.9294562655     -0.8837108964     0.7758622012
H       1.9851894161     0.8896675216     0.6890418964
H       1.8650787967     -0.0609850602     -0.7708735410
C       -1.5271308173     -0.0064482641     0.2693865814
H       0.0000010853     -0.7902372394     -0.7957960800
H       -0.0000004778     0.8902240924     -0.7301465143
H       -1.9294566972     -0.8837117626     0.7758612592
H       -1.8650799468     -0.0609827921     -0.7708738486
H       -1.9851881628     0.8896663164     0.6890434749
$end
--------------------------------------------------------------

             Standard Nuclear Orientation (Angstroms)
    I     Atom           X                Y                Z
 ----------------------------------------------------------------
    1      C       1.5271305564    -0.0064474267     0.2693873249
    2      C      -0.0000000788     0.0229661771    -0.0598477352
    3      H       1.9294562655    -0.8837108964     0.7758622012
    4      H       1.9851894161     0.8896675216     0.6890418964
    5      H       1.8650787967    -0.0609850602    -0.7708735410
    6      C      -1.5271308173    -0.0064482641     0.2693865814
    7      H       0.0000010853    -0.7902372394    -0.7957960800
    8      H      -0.0000004778     0.8902240924    -0.7301465143
    9      H      -1.9294566972    -0.8837117626     0.7758612592
   10      H      -1.8650799468    -0.0609827921    -0.7708738486
   11      H      -1.9851881628     0.8896663164     0.6890434749
 ----------------------------------------------------------------

    7    -119.0411160658      4.61E-06 Convergence criterion met
    6    -119.0850721954      4.23E-06 Convergence criterion met
 Total energy in the final basis set = -119.08507220

                    Orbital Energies (a.u.)
 --------------------------------------------------------------

 Alpha MOs
 -- Occupied --
-10.2818 -10.2772 -10.2772  -0.8763  -0.7955  -0.6711  -0.5379  -0.5048
 -0.5022  -0.4789  -0.4272  -0.3980  -0.3767

                    Cartesian Multipole Moments
 -----------------------------------------------------------------
    Charge (ESU x 10^10)
                -0.0000
    Dipole Moment (Debye)
         X       0.0000      Y      -0.0092      Z      -0.3915
       Tot       0.3916
    Quadrupole Moments (Debye-Ang)
        XX     -21.6285     XY      -0.0000     YY     -21.4894
        XZ       0.0000     YZ      -0.0290     ZZ     -22.0341

 Total job time:  26.01s(wall), 70.69s(cpu)
        *  Thank you very much for using Q-Chem.  Have a nice day.  *
