 Q-Chem 5.2 (devel), Q-Chem, Inc., Pleasanton, CA (2019)
 Q-Chem 5.2.2 for Intel X86 EM64T Linux

User input:
--------------------------------------------------------------
$rem
   JOBTYPE  sp
   EXCHANGE   omegaB97X-D
   BASIS   6-311+G(2df,2pd)
   max_scf_cycles   250
   geom_opt_max_cycles   1500
   basis2 6-31G*
   scf_algorithm rca_diis
   SYM_IGNORE  TRUE
   print_input   true
   geom_opt_dmax   80
   pop_mulliken false
   XC_GRID 000075000302
$end

$molecule
0 1
C       1.2395372413     -0.0401416549     0.3520683452
C       0.0000000813     0.0343608146     -0.6447868597
H       1.4825631500     -0.9076103680     0.9615212350
H       1.4179890472     0.8784737484     0.9136555449
H       1.9922588710     0.0444738040     -0.4399091905
C       -1.2395373588     -0.0401416401     0.3520684691
H       -0.0000003857     -0.8717360503     -1.2594034004
H       0.0000001598     0.8869843432     -1.3294368254
H       -1.4825630372     -0.9076104077     0.9615213085
H       -1.9922585256     0.0444744126     -0.4399093715
H       -1.4179893039     0.8784736643     0.9136557637
--------------------------------------------------------------

             Standard Nuclear Orientation (Angstroms)
    I     Atom           X                Y                Z
 ----------------------------------------------------------------
    1      C       1.2395372413    -0.0401416549     0.3520683452
    2      C       0.0000000813     0.0343608146    -0.6447868597
    3      H       1.4825631500    -0.9076103680     0.9615212350
    4      H       1.4179890472     0.8784737484     0.9136555449
    5      H       1.9922588710     0.0444738040    -0.4399091905
    6      C      -1.2395373588    -0.0401416401     0.3520684691
    7      H      -0.0000003857    -0.8717360503    -1.2594034004
    8      H       0.0000001598     0.8869843432    -1.3294368254
    9      H      -1.4825630372    -0.9076104077     0.9615213085
   10      H      -1.9922585256     0.0444744126    -0.4399093715
   11      H      -1.4179893039     0.8784736643     0.9136557637
 ----------------------------------------------------------------

    7    -119.0627788326      4.82E-06 Convergence criterion met
    5    -119.1063424827      9.00E-06 Convergence criterion met
 Total energy in the final basis set = -119.10634248

                    Orbital Energies (a.u.)
 --------------------------------------------------------------

 Alpha MOs
 -- Occupied --
-10.2911 -10.2653 -10.2653  -0.8682  -0.7716  -0.6847  -0.5380  -0.4982
 -0.4948  -0.4639  -0.4496  -0.4173  -0.3558

                    Cartesian Multipole Moments
 -----------------------------------------------------------------
    Charge (ESU x 10^10)
                -0.0000
    Dipole Moment (Debye)
         X       0.0000      Y       0.0299      Z      -0.2649
       Tot       0.2666
    Quadrupole Moments (Debye-Ang)
        XX     -23.3858     XY      -0.0000     YY     -21.1213
        XZ       0.0000     YZ      -0.5109     ZZ     -21.0862

 Total job time:  43.19s(wall), 120.38s(cpu)
        *  Thank you very much for using Q-Chem.  Have a nice day.  *
