 Q-Chem 5.2 (devel), Q-Chem, Inc., Pleasanton, CA (2019)
 Q-Chem 5.2.2 for Intel X86 EM64T Linux

User input:
--------------------------------------------------------------
$rem
   JOBTYPE  sp
   EXCHANGE   omegaB97X-D
   BASIS   6-311+G(2df,2pd)
   max_scf_cycles   250
   geom_opt_max_cycles   1500
   basis2 6-31G*
   scf_algorithm rca_diis
   SYM_IGNORE  TRUE
   print_input   true
   geom_opt_dmax   80
   pop_mulliken false
   XC_GRID 000075000302
$end

$molecule
0 1
C       1.2543621951     0.0399059759     0.3198184402
C       0.0000000159     0.0218839642     -0.5297332251
H       1.4697107484     -0.9488297822     0.7281217410
H       1.2530170200     1.0093110575     0.8070964875
H       2.2078145350     -0.1383399312     -0.1913040155
C       -1.2543624466     0.0399055709     0.3198177074
H       0.0000006032     -0.8132926571     -1.2340153775
H       -0.0000003507     0.8673110788     -1.2226729858
H       -1.4697068058     -0.9488294533     0.7281246180
H       -2.2078149707     -0.1383350137     -0.1913060033
H       -1.2530206044     1.0093098561     0.8070976319
--------------------------------------------------------------

             Standard Nuclear Orientation (Angstroms)
    I     Atom           X                Y                Z
 ----------------------------------------------------------------
    1      C       1.2543621951     0.0399059759     0.3198184402
    2      C       0.0000000159     0.0218839642    -0.5297332251
    3      H       1.4697107484    -0.9488297822     0.7281217410
    4      H       1.2530170200     1.0093110575     0.8070964875
    5      H       2.2078145350    -0.1383399312    -0.1913040155
    6      C      -1.2543624466     0.0399055709     0.3198177074
    7      H       0.0000006032    -0.8132926571    -1.2340153775
    8      H      -0.0000003507     0.8673110788    -1.2226729858
    9      H      -1.4697068058    -0.9488294533     0.7281246180
   10      H      -2.2078149707    -0.1383350137    -0.1913060033
   11      H      -1.2530206044     1.0093098561     0.8070976319
 ----------------------------------------------------------------

    7    -119.0453219991      8.47E-06 Convergence criterion met
    6    -119.0917808475      3.37E-06 Convergence criterion met
 Total energy in the final basis set = -119.09178085

                    Orbital Energies (a.u.)
 --------------------------------------------------------------

 Alpha MOs
 -- Occupied --
-10.2727 -10.2657 -10.2657  -0.8853  -0.7860  -0.6821  -0.5765  -0.5154
 -0.5120  -0.4494  -0.4130  -0.3989  -0.3799

                    Cartesian Multipole Moments
 -----------------------------------------------------------------
    Charge (ESU x 10^10)
                -0.0000
    Dipole Moment (Debye)
         X       0.0000      Y      -0.2089      Z      -0.3023
       Tot       0.3674
    Quadrupole Moments (Debye-Ang)
        XX     -21.3557     XY      -0.0000     YY     -20.3956
        XZ       0.0000     YZ       0.5338     ZZ     -23.4823

 Total job time:  49.30s(wall), 137.37s(cpu)
        *  Thank you very much for using Q-Chem.  Have a nice day.  *
