 Q-Chem 5.2 (devel), Q-Chem, Inc., Pleasanton, CA (2019)
 Q-Chem 5.2.2 for Intel X86 EM64T Linux

User input:
--------------------------------------------------------------
$rem
   JOBTYPE  sp
   EXCHANGE   omegaB97X-D
   BASIS   6-311+G(2df,2pd)
   max_scf_cycles   250
   geom_opt_max_cycles   1500
   basis2 6-31G*
   scf_algorithm rca_diis
   SYM_IGNORE  TRUE
   print_input   true
   geom_opt_dmax   80
   pop_mulliken false
   XC_GRID 000075000302
$end

$molecule
0 1
C       1.1316215916     -0.0059350237     0.2641090536
C       0.0000000632     -0.0039835362     -0.4260217844
H       1.3018021282     -0.8888937668     0.8804346148
H       1.2872486423     0.8892078826     0.8677828833
H       1.8626400823     0.0058603746     -0.5429876645
C       -1.1316211602     -0.0059346565     0.2641096980
H       -0.0000011161     -0.8693834464     -1.0934622523
H       -0.0000001777     0.8728880149     -1.0781489417
H       -1.3018021339     -0.8888940143     0.8804342068
H       -1.8626384433     0.0058606984     -0.5429881668
H       -1.2872495369     0.8892081394     0.8677833722
--------------------------------------------------------------

             Standard Nuclear Orientation (Angstroms)
    I     Atom           X                Y                Z
 ----------------------------------------------------------------
    1      C       1.1316215916    -0.0059350237     0.2641090536
    2      C       0.0000000632    -0.0039835362    -0.4260217844
    3      H       1.3018021282    -0.8888937668     0.8804346148
    4      H       1.2872486423     0.8892078826     0.8677828833
    5      H       1.8626400823     0.0058603746    -0.5429876645
    6      C      -1.1316211602    -0.0059346565     0.2641096980
    7      H      -0.0000011161    -0.8693834464    -1.0934622523
    8      H      -0.0000001777     0.8728880149    -1.0781489417
    9      H      -1.3018021339    -0.8888940143     0.8804342068
   10      H      -1.8626384433     0.0058606984    -0.5429881668
   11      H      -1.2872495369     0.8892081394     0.8677833722
 ----------------------------------------------------------------

    7    -119.0272706752      5.46E-06 Convergence criterion met
    6    -119.0752177247      2.65E-06 Convergence criterion met
 Total energy in the final basis set = -119.07521772

                    Orbital Energies (a.u.)
 --------------------------------------------------------------

 Alpha MOs
 -- Occupied --
-10.2454 -10.2454 -10.2402  -0.9462  -0.8007  -0.6617  -0.5842  -0.5537
 -0.5214  -0.4669  -0.4132  -0.4030  -0.3848

                    Cartesian Multipole Moments
 -----------------------------------------------------------------
    Charge (ESU x 10^10)
                 0.0000
    Dipole Moment (Debye)
         X      -0.0000      Y       0.0073      Z      -0.2136
       Tot       0.2137
    Quadrupole Moments (Debye-Ang)
        XX     -23.1918     XY      -0.0000     YY     -20.9688
        XZ       0.0000     YZ      -0.0463     ZZ     -21.5808

 Total job time:  50.89s(wall), 141.64s(cpu)
        *  Thank you very much for using Q-Chem.  Have a nice day.  *
