 Q-Chem 5.2 (devel), Q-Chem, Inc., Pleasanton, CA (2019)
 Q-Chem 5.2.2 for Intel X86 EM64T Linux

User input:
--------------------------------------------------------------
$rem
   JOBTYPE  sp
   EXCHANGE   omegaB97X-D
   BASIS   6-311+G(2df,2pd)
   max_scf_cycles   250
   geom_opt_max_cycles   1500
   basis2 6-31G*
   scf_algorithm rca_diis
   SYM_IGNORE  TRUE
   print_input   true
   geom_opt_dmax   80
   pop_mulliken false
   XC_GRID 000075000302
$end

$molecule
0 1
C       1.2331593625     -0.1365597100     0.2545878477
C       0.0000000360     -0.2467948822     -0.6411162147
H       1.4771578351     -0.7522172074     1.1177161580
H       0.9587249480     0.8594698692     0.6229440366
H       2.1235655431     0.0598447501     -0.3419957522
C       -1.2331590126     -0.1365598631     0.2545883894
H       0.0000000241     -0.6657728106     -1.6434568148
H       -0.0000004235     0.8514919735     -0.6808868563
H       -1.4771582069     -0.7522173118     1.1177164023
H       -2.1235647246     0.0598454592     -0.3419956634
H       -0.9587254416     0.8594703991     0.6229434863
--------------------------------------------------------------

             Standard Nuclear Orientation (Angstroms)
    I     Atom           X                Y                Z
 ----------------------------------------------------------------
    1      C       1.2331593625    -0.1365597100     0.2545878477
    2      C       0.0000000360    -0.2467948822    -0.6411162147
    3      H       1.4771578351    -0.7522172074     1.1177161580
    4      H       0.9587249480     0.8594698692     0.6229440366
    5      H       2.1235655431     0.0598447501    -0.3419957522
    6      C      -1.2331590126    -0.1365598631     0.2545883894
    7      H       0.0000000241    -0.6657728106    -1.6434568148
    8      H      -0.0000004235     0.8514919735    -0.6808868563
    9      H      -1.4771582069    -0.7522173118     1.1177164023
   10      H      -2.1235647246     0.0598454592    -0.3419956634
   11      H      -0.9587254416     0.8594703991     0.6229434863
 ----------------------------------------------------------------

    7    -119.0244298096      6.49E-06 Convergence criterion met
    6    -119.0711276889      3.82E-06 Convergence criterion met
 Total energy in the final basis set = -119.07112769

                    Orbital Energies (a.u.)
 --------------------------------------------------------------

 Alpha MOs
 -- Occupied --
-10.2790 -10.2701 -10.2701  -0.9062  -0.7786  -0.6743  -0.5734  -0.5209
 -0.4988  -0.4420  -0.4348  -0.4112  -0.3716

                    Cartesian Multipole Moments
 -----------------------------------------------------------------
    Charge (ESU x 10^10)
                -0.0000
    Dipole Moment (Debye)
         X      -0.0000      Y       0.3590      Z      -0.1294
       Tot       0.3816
    Quadrupole Moments (Debye-Ang)
        XX     -22.3024     XY      -0.0000     YY     -22.0380
        XZ      -0.0000     YZ      -0.1960     ZZ     -21.5736

 Total job time:  49.16s(wall), 137.10s(cpu)
        *  Thank you very much for using Q-Chem.  Have a nice day.  *
