 Q-Chem 5.3 (devel), Q-Chem, Inc., Pleasanton, CA (2020)
 Q-Chem 5.3.0 for Intel X86 EM64T Linux

User input:
--------------------------------------------------------------
$rem
   JOBTYPE  sp
   EXCHANGE   omegaB97X-D
   BASIS   6-311+G(2df,2pd)
   UNRESTRICTED   False
   max_scf_cycles   250
   geom_opt_max_cycles   1500
   basis2 6-31G*
   scf_algorithm rca_diis
   SYM_IGNORE  TRUE
   print_input   true
   geom_opt_dmax   80
   pop_mulliken false
   XC_GRID 000075000302
$end

$molecule
0 1
C       1.2329049291     0.0008061559     0.1957839952
C       -0.0000004687     -0.0015565405     -0.6227236453
H       1.4391616572     -0.8091741871     0.9045804728
H       1.4281706193     0.8074922702     0.9113146607
H       2.2289189324     0.0060866812     -0.2581632259
C       -1.2329059404     0.0008059150     0.1957842719
H       0.0000003793     -0.8809049951     -1.2677154014
H       -0.0000006266     0.8720403574     -1.2755479764
H       -1.4391608449     -0.8091752351     0.9045802742
H       -2.2289186863     0.0060895953     -0.2581652474
H       -1.4281700110     0.8074906489     0.9113168405
$end
--------------------------------------------------------------

             Standard Nuclear Orientation (Angstroms)
    I     Atom           X                Y                Z
 ----------------------------------------------------------------
    1      C       1.2329049291     0.0008061559     0.1957839952
    2      C      -0.0000004687    -0.0015565405    -0.6227236453
    3      H       1.4391616572    -0.8091741871     0.9045804728
    4      H       1.4281706193     0.8074922702     0.9113146607
    5      H       2.2289189324     0.0060866812    -0.2581632259
    6      C      -1.2329059404     0.0008059150     0.1957842719
    7      H       0.0000003793    -0.8809049951    -1.2677154014
    8      H      -0.0000006266     0.8720403574    -1.2755479764
    9      H      -1.4391608449    -0.8091752351     0.9045802742
   10      H      -2.2289186863     0.0060895953    -0.2581652474
   11      H      -1.4281700110     0.8074906489     0.9113168405
 ----------------------------------------------------------------

    7    -119.0740059354      4.75E-06 Convergence criterion met
    6    -119.1189731226      3.94E-06 Convergence criterion met
 Total energy in the final basis set = -119.11897312

                    Orbital Energies (a.u.)
 --------------------------------------------------------------

 Alpha MOs
 -- Occupied --
-10.2812 -10.2637 -10.2637  -0.8911  -0.7858  -0.6984  -0.5418  -0.5289
 -0.5008  -0.4424  -0.4213  -0.4187  -0.3968

                    Cartesian Multipole Moments
 -----------------------------------------------------------------
    Charge (ESU x 10^10)
                 0.0000
    Dipole Moment (Debye)
         X       0.0000      Y      -0.0025      Z       0.0186
       Tot       0.0187
    Quadrupole Moments (Debye-Ang)
        XX     -21.0079     XY      -0.0000     YY     -22.0104
        XZ       0.0000     YZ       0.0025     ZZ     -21.6711

 Total job time:  27.57s(wall), 74.34s(cpu)
        *  Thank you very much for using Q-Chem.  Have a nice day.  *
