 Q-Chem 5.3 (devel), Q-Chem, Inc., Pleasanton, CA (2020)
 Q-Chem 5.3.0 for Intel X86 EM64T Linux

User input:
--------------------------------------------------------------
$rem
   JOBTYPE  sp
   EXCHANGE   omegaB97X-D
   BASIS   6-311+G(2df,2pd)
   UNRESTRICTED   False
   max_scf_cycles   250
   geom_opt_max_cycles   1500
   basis2 6-31G*
   scf_algorithm rca_diis
   SYM_IGNORE  TRUE
   print_input   true
   geom_opt_dmax   80
   pop_mulliken false
   XC_GRID 000075000302
$end

$molecule
0 1
C       1.2544926768     0.0180812291     0.3135670911
C       0.0000000543     0.1189055477     -0.5299789979
H       1.2967043973     -0.9297827094     0.8525096037
H       1.4454338837     1.0286775107     0.6591460724
H       2.1467098515     -0.3986295786     -0.1685005497
C       -1.2544925104     0.0180795040     0.3135666455
H       0.0000008806     -0.6087355901     -1.3448849885
H       -0.0000008588     1.0531384705     -1.0975363240
H       -1.2967018722     -0.9297847334     0.8525085298
H       -2.1467119003     -0.3986224872     -0.1685042434
H       -1.4454346633     1.0286735028     0.6591521799
$end
--------------------------------------------------------------

             Standard Nuclear Orientation (Angstroms)
    I     Atom           X                Y                Z
 ----------------------------------------------------------------
    1      C       1.2544926768     0.0180812291     0.3135670911
    2      C       0.0000000543     0.1189055477    -0.5299789979
    3      H       1.2967043973    -0.9297827094     0.8525096037
    4      H       1.4454338837     1.0286775107     0.6591460724
    5      H       2.1467098515    -0.3986295786    -0.1685005497
    6      C      -1.2544925104     0.0180795040     0.3135666455
    7      H       0.0000008806    -0.6087355901    -1.3448849885
    8      H      -0.0000008588     1.0531384705    -1.0975363240
    9      H      -1.2967018722    -0.9297847334     0.8525085298
   10      H      -2.1467119003    -0.3986224872    -0.1685042434
   11      H      -1.4454346633     1.0286735028     0.6591521799
 ----------------------------------------------------------------

    7    -119.0422893615      8.30E-06 Convergence criterion met
    6    -119.0887866820      3.45E-06 Convergence criterion met
 Total energy in the final basis set = -119.08878668

                    Orbital Energies (a.u.)
 --------------------------------------------------------------

 Alpha MOs
 -- Occupied --
-10.2722 -10.2645 -10.2645  -0.8849  -0.7851  -0.6833  -0.5709  -0.5192
 -0.5147  -0.4454  -0.4146  -0.3929  -0.3816

                    Cartesian Multipole Moments
 -----------------------------------------------------------------
    Charge (ESU x 10^10)
                -0.0000
    Dipole Moment (Debye)
         X       0.0000      Y      -0.2463      Z      -0.2787
       Tot       0.3719
    Quadrupole Moments (Debye-Ang)
        XX     -21.9433     XY      -0.0000     YY     -19.8784
        XZ       0.0000     YZ      -0.0285     ZZ     -23.5531

 Total job time:  27.68s(wall), 74.97s(cpu)
        *  Thank you very much for using Q-Chem.  Have a nice day.  *
