 Q-Chem 5.3 (devel), Q-Chem, Inc., Pleasanton, CA (2020)
 Q-Chem 5.3.0 for Intel X86 EM64T Linux

User input:
--------------------------------------------------------------
$rem
   JOBTYPE  sp
   EXCHANGE   omegaB97X-D
   BASIS   6-311+G(2df,2pd)
   UNRESTRICTED   False
   max_scf_cycles   250
   geom_opt_max_cycles   1500
   basis2 6-31G*
   scf_algorithm rca_diis
   SYM_IGNORE  TRUE
   print_input   true
   geom_opt_dmax   80
   pop_mulliken false
   XC_GRID 000075000302
$end

$molecule
0 1
C       1.2681845550     -0.1185268191     0.2511816453
C       -0.0048067188     -0.0042511015     -0.5829846312
H       1.3552015403     -0.9573849782     0.9438261088
H       1.2520915286     0.7854643639     0.8652150691
H       2.1582036411     0.0078926790     -0.3655870594
C       -1.2673735563     0.1191867834     0.2576941304
H       0.3353479483     -0.8185924174     -1.2271117067
H       -0.3225401661     0.8097009713     -1.2389451488
H       -1.2650833936     -0.7996628026     0.8484986741
H       -2.1653005221     0.0102968128     -0.3518921381
H       -1.3439249171     0.9658771744     0.9411500754
$end
--------------------------------------------------------------

             Standard Nuclear Orientation (Angstroms)
    I     Atom           X                Y                Z
 ----------------------------------------------------------------
    1      C       1.2681845550    -0.1185268191     0.2511816453
    2      C      -0.0048067188    -0.0042511015    -0.5829846312
    3      H       1.3552015403    -0.9573849782     0.9438261088
    4      H       1.2520915286     0.7854643639     0.8652150691
    5      H       2.1582036411     0.0078926790    -0.3655870594
    6      C      -1.2673735563     0.1191867834     0.2576941304
    7      H       0.3353479483    -0.8185924174    -1.2271117067
    8      H      -0.3225401661     0.8097009713    -1.2389451488
    9      H      -1.2650833936    -0.7996628026     0.8484986741
   10      H      -2.1653005221     0.0102968128    -0.3518921381
   11      H      -1.3439249171     0.9658771744     0.9411500754
 ----------------------------------------------------------------

    7    -119.0529614006      6.33E-06 Convergence criterion met
    6    -119.0976842638      4.51E-06 Convergence criterion met
 Total energy in the final basis set = -119.09768426

                    Orbital Energies (a.u.)
 --------------------------------------------------------------

 Alpha MOs
 -- Occupied --
-10.2733 -10.2685 -10.2684  -0.8866  -0.7839  -0.6781  -0.5498  -0.5279
 -0.5031  -0.4725  -0.4338  -0.4042  -0.3586

                    Cartesian Multipole Moments
 -----------------------------------------------------------------
    Charge (ESU x 10^10)
                -0.0000
    Dipole Moment (Debye)
         X      -0.0014      Y       0.0036      Z      -0.0114
       Tot       0.0121
    Quadrupole Moments (Debye-Ang)
        XX     -21.8624     XY      -0.8910     YY     -21.6635
        XZ      -0.0238     YZ      -0.0130     ZZ     -22.0831

 Total job time:  26.86s(wall), 73.23s(cpu)
        *  Thank you very much for using Q-Chem.  Have a nice day.  *
