 Q-Chem 5.2 (devel), Q-Chem, Inc., Pleasanton, CA (2019)
 Q-Chem 5.2.2 for Intel X86 EM64T Linux

User input:
--------------------------------------------------------------
$rem
   JOBTYPE  sp
   EXCHANGE   omegaB97X-D
   BASIS   6-311+G(2df,2pd)
   max_scf_cycles   250
   geom_opt_max_cycles   1500
   basis2 6-31G*
   scf_algorithm rca_diis
   SYM_IGNORE  TRUE
   print_input   true
   geom_opt_dmax   80
   pop_mulliken false
   XC_GRID 000075000302
$end

$molecule
0 1
C       1.5286911956     -0.0001855077     0.2646720744
C       -0.0000000943     0.0026583917     -0.0585668056
H       1.9479209006     -0.8850109058     0.7435298001
H       1.9532562041     0.8806673184     0.7471584022
H       1.8779478195     0.0079152981     -0.7732488300
C       -1.5286914709     -0.0001860061     0.2646714665
H       0.0000011503     -0.8282831826     -0.7744269866
H       -0.0000004642     0.8188526823     -0.7901838669
H       -1.9479213583     -0.8850108641     0.7435300174
H       -1.8779488084     0.0079164822     -0.7732488741
H       -1.9532551345     0.8806669595     0.7471586216
--------------------------------------------------------------

             Standard Nuclear Orientation (Angstroms)
    I     Atom           X                Y                Z
 ----------------------------------------------------------------
    1      C       1.5286911956    -0.0001855077     0.2646720744
    2      C      -0.0000000943     0.0026583917    -0.0585668056
    3      H       1.9479209006    -0.8850109058     0.7435298001
    4      H       1.9532562041     0.8806673184     0.7471584022
    5      H       1.8779478195     0.0079152981    -0.7732488300
    6      C      -1.5286914709    -0.0001860061     0.2646714665
    7      H       0.0000011503    -0.8282831826    -0.7744269866
    8      H      -0.0000004642     0.8188526823    -0.7901838669
    9      H      -1.9479213583    -0.8850108641     0.7435300174
   10      H      -1.8779488084     0.0079164822    -0.7732488741
   11      H      -1.9532551345     0.8806669595     0.7471586216
 ----------------------------------------------------------------

    7    -119.0417968568      4.56E-06 Convergence criterion met
    6    -119.0857340067      4.19E-06 Convergence criterion met
 Total energy in the final basis set = -119.08573401

                    Orbital Energies (a.u.)
 --------------------------------------------------------------

 Alpha MOs
 -- Occupied --
-10.2810 -10.2778 -10.2778  -0.8761  -0.7953  -0.6722  -0.5346  -0.5055
 -0.5041  -0.4773  -0.4293  -0.3943  -0.3797

                    Cartesian Multipole Moments
 -----------------------------------------------------------------
    Charge (ESU x 10^10)
                -0.0000
    Dipole Moment (Debye)
         X       0.0000      Y      -0.0051      Z      -0.3797
       Tot       0.3798
    Quadrupole Moments (Debye-Ang)
        XX     -21.6108     XY      -0.0000     YY     -21.6223
        XZ       0.0000     YZ      -0.0303     ZZ     -21.8841

 Total job time:  47.46s(wall), 132.32s(cpu)
        *  Thank you very much for using Q-Chem.  Have a nice day.  *
