 Q-Chem 5.2 (devel), Q-Chem, Inc., Pleasanton, CA (2019)
 Q-Chem 5.2.2 for Intel X86 EM64T Linux

User input:
--------------------------------------------------------------
$rem
   JOBTYPE  sp
   EXCHANGE   omegaB97X-D
   BASIS   6-311+G(2df,2pd)
   max_scf_cycles   250
   geom_opt_max_cycles   1500
   basis2 6-31G*
   scf_algorithm rca_diis
   SYM_IGNORE  TRUE
   print_input   true
   geom_opt_dmax   80
   pop_mulliken false
   XC_GRID 000075000302
$end

$molecule
0 1
C       1.3116798018     -0.0294793401     0.2205673514
C       0.0307585842     -0.0048179593     -0.5829719654
H       1.2276235789     -0.7077566681     1.0718978389
H       1.4074713461     0.7103501881     1.0287620191
H       2.1137102447     0.1118217396     -0.4941831967
C       -1.2210504977     0.0145402548     0.3065633040
H       -0.0572632938     -0.8742149964     -1.2388357180
H       0.0207576549     0.8712869956     -1.2357327228
H       -1.4180789040     -0.9853612049     0.6987806126
H       -2.1915789077     -0.1066181531     -0.1910793698
H       -1.2240296680     1.0002498100     0.7572768655
--------------------------------------------------------------

             Standard Nuclear Orientation (Angstroms)
    I     Atom           X                Y                Z
 ----------------------------------------------------------------
    1      C       1.3116798018    -0.0294793401     0.2205673514
    2      C       0.0307585842    -0.0048179593    -0.5829719654
    3      H       1.2276235789    -0.7077566681     1.0718978389
    4      H       1.4074713461     0.7103501881     1.0287620191
    5      H       2.1137102447     0.1118217396    -0.4941831967
    6      C      -1.2210504977     0.0145402548     0.3065633040
    7      H      -0.0572632938    -0.8742149964    -1.2388357180
    8      H       0.0207576549     0.8712869956    -1.2357327228
    9      H      -1.4180789040    -0.9853612049     0.6987806126
   10      H      -2.1915789077    -0.1066181531    -0.1910793698
   11      H      -1.2240296680     1.0002498100     0.7572768655
 ----------------------------------------------------------------

    7    -119.0459922961      7.82E-06 Convergence criterion met
    6    -119.0922057798      4.11E-06 Convergence criterion met
 Total energy in the final basis set = -119.09220578

                    Orbital Energies (a.u.)
 --------------------------------------------------------------

 Alpha MOs
 -- Occupied --
-10.2745 -10.2666 -10.2657  -0.8840  -0.7842  -0.6845  -0.5586  -0.5440
 -0.4886  -0.4565  -0.4258  -0.3912  -0.3780

                    Cartesian Multipole Moments
 -----------------------------------------------------------------
    Charge (ESU x 10^10)
                 0.0000
    Dipole Moment (Debye)
         X      -0.1914      Y       0.0337      Z      -0.0717
       Tot       0.2071
    Quadrupole Moments (Debye-Ang)
        XX     -22.0787     XY       1.0224     YY     -21.6553
        XZ       0.0734     YZ       0.0546     ZZ     -21.8971

 Total job time:  47.61s(wall), 132.94s(cpu)
        *  Thank you very much for using Q-Chem.  Have a nice day.  *
