 Q-Chem 5.2 (devel), Q-Chem, Inc., Pleasanton, CA (2019)
 Q-Chem 5.2.2 for Intel X86 EM64T Linux

User input:
--------------------------------------------------------------
$rem
   JOBTYPE  sp
   EXCHANGE   omegaB97X-D
   BASIS   6-311+G(2df,2pd)
   max_scf_cycles   250
   geom_opt_max_cycles   1500
   basis2 6-31G*
   scf_algorithm rca_diis
   SYM_IGNORE  TRUE
   print_input   true
   geom_opt_dmax   80
   pop_mulliken false
   XC_GRID 000075000302
$end

$molecule
0 1
C       1.3213126151     -0.0008086321     0.2976724860
C       -0.0799187987     0.0000072450     -0.5851425106
H       1.3586003187     -0.8748308208     0.9537321712
H       1.3550099461     0.8750539791     0.9515587791
H       2.2357621467     -0.0007254774     -0.2964865640
C       -1.2170939538     0.0007736887     0.2175784403
H       -0.1814929659     -0.8715229427     -1.2361972346
H       -0.1792277660     0.8716617344     -1.2363803971
H       -1.2568072630     -0.8861644140     0.8503501968
H       -2.0957442083     0.0006303420     -0.4281584250
H       -1.2604001316     0.8859259639     0.8525180769
--------------------------------------------------------------

             Standard Nuclear Orientation (Angstroms)
    I     Atom           X                Y                Z
 ----------------------------------------------------------------
    1      C       1.3213126151    -0.0008086321     0.2976724860
    2      C      -0.0799187987     0.0000072450    -0.5851425106
    3      H       1.3586003187    -0.8748308208     0.9537321712
    4      H       1.3550099461     0.8750539791     0.9515587791
    5      H       2.2357621467    -0.0007254774    -0.2964865640
    6      C      -1.2170939538     0.0007736887     0.2175784403
    7      H      -0.1814929659    -0.8715229427    -1.2361972346
    8      H      -0.1792277660     0.8716617344    -1.2363803971
    9      H      -1.2568072630    -0.8861644140     0.8503501968
   10      H      -2.0957442083     0.0006303420    -0.4281584250
   11      H      -1.2604001316     0.8859259639     0.8525180769
 ----------------------------------------------------------------

    7    -119.0794771315      5.21E-06 Convergence criterion met
    6    -119.1233875978      4.63E-06 Convergence criterion met
 Total energy in the final basis set = -119.12338760

                    Orbital Energies (a.u.)
 --------------------------------------------------------------

 Alpha MOs
 -- Occupied --
-10.2744 -10.2731 -10.2548  -0.8940  -0.7760  -0.6738  -0.5524  -0.5298
 -0.4814  -0.4641  -0.4369  -0.4024  -0.3973

                    Cartesian Multipole Moments
 -----------------------------------------------------------------
    Charge (ESU x 10^10)
                -0.0000
    Dipole Moment (Debye)
         X      -0.0848      Y       0.0002      Z      -0.0805
       Tot       0.1169
    Quadrupole Moments (Debye-Ang)
        XX     -22.0824     XY      -0.0073     YY     -21.3626
        XZ       0.6256     YZ       0.0002     ZZ     -21.8765

 Total job time:  49.46s(wall), 138.23s(cpu)
        *  Thank you very much for using Q-Chem.  Have a nice day.  *
