 Q-Chem 5.3 (devel), Q-Chem, Inc., Pleasanton, CA (2020)
 Q-Chem 5.3.0 for Intel X86 EM64T Linux

User input:
--------------------------------------------------------------
$rem
   JOBTYPE  sp
   EXCHANGE   omegaB97X-D
   BASIS   6-311+G(2df,2pd)
   UNRESTRICTED   False
   max_scf_cycles   250
   geom_opt_max_cycles   1500
   basis2 6-31G*
   scf_algorithm rca_diis
   SYM_IGNORE  TRUE
   print_input   true
   geom_opt_dmax   80
   pop_mulliken false
   XC_GRID 000075000302
$end

$molecule
0 1
C       1.2670160143     -0.0481740426     0.2591150427
C       0.0002378166     -0.0000587294     -0.5868849277
H       1.2852166290     -0.7942134007     0.8135205943
H       1.3303362045     0.9706327666     0.9932080701
H       2.1612701029     -0.0519829640     -0.3580628470
C       -1.2655734410     0.0481970158     0.2605090423
H       -0.0187432978     -0.8737913838     -1.2426148034
H       0.0187701519     0.8735615226     -1.2427858071
H       -1.3287063155     -0.9680362313     0.9926140851
H       -2.1665095684     0.0523744906     -0.3607489655
H       -1.2833143572     0.7914916223     0.8131755350
$end
--------------------------------------------------------------

             Standard Nuclear Orientation (Angstroms)
    I     Atom           X                Y                Z
 ----------------------------------------------------------------
    1      C       1.2670160143    -0.0481740426     0.2591150427
    2      C       0.0002378166    -0.0000587294    -0.5868849277
    3      H       1.2852166290    -0.7942134007     0.8135205943
    4      H       1.3303362045     0.9706327666     0.9932080701
    5      H       2.1612701029    -0.0519829640    -0.3580628470
    6      C      -1.2655734410     0.0481970158     0.2605090423
    7      H      -0.0187432978    -0.8737913838    -1.2426148034
    8      H       0.0187701519     0.8735615226    -1.2427858071
    9      H      -1.3287063155    -0.9680362313     0.9926140851
   10      H      -2.1665095684     0.0523744906    -0.3607489655
   11      H      -1.2833143572     0.7914916223     0.8131755350
 ----------------------------------------------------------------

    7    -119.0319715156      5.97E-06 Convergence criterion met
    5    -119.0778585333      9.00E-06 Convergence criterion met
 Total energy in the final basis set = -119.07785853

                    Orbital Energies (a.u.)
 --------------------------------------------------------------

 Alpha MOs
 -- Occupied --
-10.2759 -10.2636 -10.2635  -0.8856  -0.7868  -0.6862  -0.5507  -0.5262
 -0.4858  -0.4689  -0.4204  -0.4122  -0.4026

                    Cartesian Multipole Moments
 -----------------------------------------------------------------
    Charge (ESU x 10^10)
                -0.0000
    Dipole Moment (Debye)
         X       0.0049      Y      -0.0025      Z      -0.1871
       Tot       0.1871
    Quadrupole Moments (Debye-Ang)
        XX     -22.1713     XY      -0.6047     YY     -21.3583
        XZ      -0.0072     YZ      -0.0013     ZZ     -21.9134

 Total job time:  24.69s(wall), 66.75s(cpu)
        *  Thank you very much for using Q-Chem.  Have a nice day.  *
