 Q-Chem 5.3 (devel), Q-Chem, Inc., Pleasanton, CA (2020)
 Q-Chem 5.3.0 for Intel X86 EM64T Linux

User input:
--------------------------------------------------------------
$rem
   JOBTYPE  sp
   EXCHANGE   omegaB97X-D
   BASIS   6-311+G(2df,2pd)
   UNRESTRICTED   False
   max_scf_cycles   250
   geom_opt_max_cycles   1500
   basis2 6-31G*
   scf_algorithm rca_diis
   SYM_IGNORE  TRUE
   print_input   true
   geom_opt_dmax   80
   pop_mulliken false
   XC_GRID 000075000302
$end

$molecule
0 1
C       1.1595555074     -0.0085522272     0.2640923565
C       0.0000000509     0.0109588049     -0.4561614682
H       1.2805792351     -0.8825334387     0.9049469693
H       1.3224071597     0.8941782436     0.8547968479
H       1.9246900027     -0.0406395793     -0.5105854730
C       -1.1595551287     -0.0085517586     0.2640929284
H       -0.0000009969     -0.8393367256     -1.1426480857
H       -0.0000000320     0.9034710226     -1.0866470780
H       -1.2805789007     -0.8825329012     0.9049475825
H       -1.9246886583     -0.0406399594     -0.5105858635
H       -1.3224082998     0.8941791849     0.8547963027
$end
--------------------------------------------------------------

             Standard Nuclear Orientation (Angstroms)
    I     Atom           X                Y                Z
 ----------------------------------------------------------------
    1      C       1.1595555074    -0.0085522272     0.2640923565
    2      C       0.0000000509     0.0109588049    -0.4561614682
    3      H       1.2805792351    -0.8825334387     0.9049469693
    4      H       1.3224071597     0.8941782436     0.8547968479
    5      H       1.9246900027    -0.0406395793    -0.5105854730
    6      C      -1.1595551287    -0.0085517586     0.2640929284
    7      H      -0.0000009969    -0.8393367256    -1.1426480857
    8      H      -0.0000000320     0.9034710226    -1.0866470780
    9      H      -1.2805789007    -0.8825329012     0.9049475825
   10      H      -1.9246886583    -0.0406399594    -0.5105858635
   11      H      -1.3224082998     0.8941791849     0.8547963027
 ----------------------------------------------------------------

    7    -119.0571128988      5.11E-06 Convergence criterion met
    6    -119.1034566552      2.88E-06 Convergence criterion met
 Total energy in the final basis set = -119.10345666

                    Orbital Energies (a.u.)
 --------------------------------------------------------------

 Alpha MOs
 -- Occupied --
-10.2495 -10.2494 -10.2469  -0.9313  -0.7944  -0.6641  -0.5751  -0.5462
 -0.5130  -0.4666  -0.4159  -0.4067  -0.3896

                    Cartesian Multipole Moments
 -----------------------------------------------------------------
    Charge (ESU x 10^10)
                -0.0000
    Dipole Moment (Debye)
         X      -0.0000      Y       0.0145      Z      -0.1925
       Tot       0.1930
    Quadrupole Moments (Debye-Ang)
        XX     -23.0029     XY      -0.0000     YY     -21.0308
        XZ       0.0000     YZ      -0.0209     ZZ     -21.6423

 Total job time:  29.37s(wall), 79.19s(cpu)
        *  Thank you very much for using Q-Chem.  Have a nice day.  *
