 Q-Chem 5.3 (devel), Q-Chem, Inc., Pleasanton, CA (2020)
 Q-Chem 5.3.0 for Intel X86 EM64T Linux

User input:
--------------------------------------------------------------
$rem
   JOBTYPE  sp
   EXCHANGE   omegaB97X-D
   BASIS   6-311+G(2df,2pd)
   UNRESTRICTED   False
   max_scf_cycles   250
   geom_opt_max_cycles   1500
   basis2 6-31G*
   scf_algorithm rca_diis
   SYM_IGNORE  TRUE
   print_input   true
   geom_opt_dmax   80
   pop_mulliken false
   XC_GRID 000075000302
$end

$molecule
0 1
C       1.2608668320     0.0082313597     0.2874949451
C       0.0000000187     0.0588262313     -0.5591094376
H       1.3017936536     -0.9074283202     0.8802203024
H       1.3673232008     0.9666013833     0.7923353813
H       2.1736384492     -0.2058964717     -0.2751718727
C       -1.2608668496     0.0082304865     0.2874946485
H       0.0000004732     -0.7458440338     -1.2981296045
H       -0.0000004354     0.9640025874     -1.1714739340
H       -1.3017925308     -0.9074293581     0.8802196859
H       -2.1736390086     -0.2058921533     -0.2751731493
H       -1.3673238637     0.9665989550     0.7923380537
$end
--------------------------------------------------------------

             Standard Nuclear Orientation (Angstroms)
    I     Atom           X                Y                Z
 ----------------------------------------------------------------
    1      C       1.2608668320     0.0082313597     0.2874949451
    2      C       0.0000000187     0.0588262313    -0.5591094376
    3      H       1.3017936536    -0.9074283202     0.8802203024
    4      H       1.3673232008     0.9666013833     0.7923353813
    5      H       2.1736384492    -0.2058964717    -0.2751718727
    6      C      -1.2608668496     0.0082304865     0.2874946485
    7      H       0.0000004732    -0.7458440338    -1.2981296045
    8      H      -0.0000004354     0.9640025874    -1.1714739340
    9      H      -1.3017925308    -0.9074293581     0.8802196859
   10      H      -2.1736390086    -0.2058921533    -0.2751731493
   11      H      -1.3673238637     0.9665989550     0.7923380537
 ----------------------------------------------------------------

    7    -119.0881789972      5.66E-06 Convergence criterion met
    6    -119.1319275035      3.61E-06 Convergence criterion met
 Total energy in the final basis set = -119.13192750

                    Orbital Energies (a.u.)
 --------------------------------------------------------------

 Alpha MOs
 -- Occupied --
-10.2731 -10.2649 -10.2649  -0.8824  -0.7794  -0.6781  -0.5582  -0.5189
 -0.4895  -0.4612  -0.4132  -0.4116  -0.4029

                    Cartesian Multipole Moments
 -----------------------------------------------------------------
    Charge (ESU x 10^10)
                -0.0000
    Dipole Moment (Debye)
         X       0.0000      Y      -0.0994      Z      -0.1723
       Tot       0.1989
    Quadrupole Moments (Debye-Ang)
        XX     -21.9721     XY      -0.0000     YY     -20.6820
        XZ       0.0000     YZ       0.1418     ZZ     -22.6384

 Total job time:  27.52s(wall), 74.55s(cpu)
        *  Thank you very much for using Q-Chem.  Have a nice day.  *
