 Q-Chem 5.3 (devel), Q-Chem, Inc., Pleasanton, CA (2020)
 Q-Chem 5.3.0 for Intel X86 EM64T Linux

User input:
--------------------------------------------------------------
$rem
   JOBTYPE  sp
   EXCHANGE   omegaB97X-D
   BASIS   6-311+G(2df,2pd)
   UNRESTRICTED   False
   max_scf_cycles   250
   geom_opt_max_cycles   1500
   basis2 6-31G*
   scf_algorithm rca_diis
   SYM_IGNORE  TRUE
   print_input   true
   geom_opt_dmax   80
   pop_mulliken false
   XC_GRID 000075000302
$end

$molecule
0 1
C       1.2569441035     -0.0493473295     0.3067181670
C       -0.0000000342     -0.0491938131     -0.5201013489
H       1.1786072638     -0.9600409514     0.8918847819
H       1.4743731538     0.9024438667     0.8001936308
H       2.1879687166     0.1662180131     -0.2243038677
C       -1.2569440901     -0.0493482412     0.3067179814
H       0.0000008041     -0.7592613187     -1.3582458937
H       -0.0000002393     0.6899074121     -1.3295940722
H       -1.1786058693     -0.9600418602     0.8918841424
H       -2.1879681608     0.1662229523     -0.2243029454
H       -1.4743757089     0.9024419359     0.8001944432
$end
--------------------------------------------------------------

             Standard Nuclear Orientation (Angstroms)
    I     Atom           X                Y                Z
 ----------------------------------------------------------------
    1      C       1.2569441035    -0.0493473295     0.3067181670
    2      C      -0.0000000342    -0.0491938131    -0.5201013489
    3      H       1.1786072638    -0.9600409514     0.8918847819
    4      H       1.4743731538     0.9024438667     0.8001936308
    5      H       2.1879687166     0.1662180131    -0.2243038677
    6      C      -1.2569440901    -0.0493482412     0.3067179814
    7      H       0.0000008041    -0.7592613187    -1.3582458937
    8      H      -0.0000002393     0.6899074121    -1.3295940722
    9      H      -1.1786058693    -0.9600418602     0.8918841424
   10      H      -2.1879681608     0.1662229523    -0.2243029454
   11      H      -1.4743757089     0.9024419359     0.8001944432
 ----------------------------------------------------------------

    7    -119.0421703214      8.21E-06 Convergence criterion met
    6    -119.0889319354      3.84E-06 Convergence criterion met
 Total energy in the final basis set = -119.08893194

                    Orbital Energies (a.u.)
 --------------------------------------------------------------

 Alpha MOs
 -- Occupied --
-10.2720 -10.2668 -10.2668  -0.8870  -0.7854  -0.6922  -0.5768  -0.5108
 -0.5061  -0.4609  -0.4123  -0.3996  -0.3747

                    Cartesian Multipole Moments
 -----------------------------------------------------------------
    Charge (ESU x 10^10)
                -0.0000
    Dipole Moment (Debye)
         X      -0.0000      Y       0.2991      Z      -0.2652
       Tot       0.3997
    Quadrupole Moments (Debye-Ang)
        XX     -21.4501     XY      -0.0000     YY     -21.4379
        XZ      -0.0000     YZ      -0.5126     ZZ     -22.2651

 Total job time:  27.38s(wall), 74.39s(cpu)
        *  Thank you very much for using Q-Chem.  Have a nice day.  *
