 Q-Chem 5.3 (devel), Q-Chem, Inc., Pleasanton, CA (2020)
 Q-Chem 5.3.0 for Intel X86 EM64T Linux

User input:
--------------------------------------------------------------
$rem
   JOBTYPE  sp
   EXCHANGE   omegaB97X-D
   BASIS   6-311+G(2df,2pd)
   UNRESTRICTED   False
   max_scf_cycles   250
   geom_opt_max_cycles   1500
   basis2 6-31G*
   scf_algorithm rca_diis
   SYM_IGNORE  TRUE
   print_input   true
   geom_opt_dmax   80
   pop_mulliken false
   XC_GRID 000075000302
$end

$molecule
0 1
C       1.2754588238     -0.0001167089     0.2806321725
C       0.0000010860     0.0002932383     -0.5742496753
H       1.3028641522     -0.7718931613     0.8413319549
H       1.3038089821     0.7722174221     0.8406954331
H       2.0736791743     -0.0008727564     -0.2794910738
C       -1.2754562393     -0.0001164442     0.2806303237
H       0.0000013425     -0.8689254564     -1.2259932956
H       0.0000013895     0.8699633060     -1.2250539566
H       -1.3028631723     -0.7719070808     0.8413407068
H       -2.0736879728     -0.0008716000     -0.2795008445
H       -1.3038076266     0.7722299078     0.8407032737
$end
--------------------------------------------------------------

             Standard Nuclear Orientation (Angstroms)
    I     Atom           X                Y                Z
 ----------------------------------------------------------------
    1      C       1.2754588238    -0.0001167089     0.2806321725
    2      C       0.0000010860     0.0002932383    -0.5742496753
    3      H       1.3028641522    -0.7718931613     0.8413319549
    4      H       1.3038089821     0.7722174221     0.8406954331
    5      H       2.0736791743    -0.0008727564    -0.2794910738
    6      C      -1.2754562393    -0.0001164442     0.2806303237
    7      H       0.0000013425    -0.8689254564    -1.2259932956
    8      H       0.0000013895     0.8699633060    -1.2250539566
    9      H      -1.3028631723    -0.7719070808     0.8413407068
   10      H      -2.0736879728    -0.0008716000    -0.2795008445
   11      H      -1.3038076266     0.7722299078     0.8407032737
 ----------------------------------------------------------------

    7    -119.0148743054      7.56E-06 Convergence criterion met
    6    -119.0655344164      3.99E-06 Convergence criterion met
 Total energy in the final basis set = -119.06553442

                    Orbital Energies (a.u.)
 --------------------------------------------------------------

 Alpha MOs
 -- Occupied --
-10.2671 -10.2179 -10.2179  -0.8913  -0.8118  -0.6970  -0.5574  -0.5377
 -0.5014  -0.4927  -0.4212  -0.4200  -0.4165

                    Cartesian Multipole Moments
 -----------------------------------------------------------------
    Charge (ESU x 10^10)
                -0.0000
    Dipole Moment (Debye)
         X       0.0000      Y       0.0000      Z       0.1008
       Tot       0.1008
    Quadrupole Moments (Debye-Ang)
        XX     -21.1275     XY      -0.0000     YY     -20.7551
        XZ       0.0000     YZ       0.0001     ZZ     -21.1788

 Total job time:  27.58s(wall), 75.28s(cpu)
        *  Thank you very much for using Q-Chem.  Have a nice day.  *
