 Q-Chem 5.3 (devel), Q-Chem, Inc., Pleasanton, CA (2020)
 Q-Chem 5.3.0 for Intel X86 EM64T Linux

User input:
--------------------------------------------------------------
$rem
   JOBTYPE  sp
   EXCHANGE   omegaB97X-D
   BASIS   6-311+G(2df,2pd)
   UNRESTRICTED   False
   max_scf_cycles   250
   geom_opt_max_cycles   1500
   basis2 6-31G*
   scf_algorithm rca_diis
   SYM_IGNORE  TRUE
   print_input   true
   geom_opt_dmax   80
   pop_mulliken false
   XC_GRID 000075000302
$end

$molecule
0 1
C       1.2787357045     -0.0002053855     0.2102802871
C       0.0000001936     -0.0060545563     -0.6245463517
H       1.3177342473     -0.9419348129     0.9028882161
H       1.3007826150     0.9430931993     0.9216577164
H       2.0182397755     0.0105416120     -0.2937961143
C       -1.2787343836     -0.0002052801     0.2102816712
H       -0.0000000445     -0.8568694888     -1.2501228641
H       -0.0000000365     0.8399343378     -1.2663439088
H       -1.3177324887     -0.9419323349     0.9028881282
H       -2.0182442357     0.0105419630     -0.2937981928
H       -1.3007814076     0.9430914125     0.9216564316
$end
--------------------------------------------------------------

             Standard Nuclear Orientation (Angstroms)
    I     Atom           X                Y                Z
 ----------------------------------------------------------------
    1      C       1.2787357045    -0.0002053855     0.2102802871
    2      C       0.0000001936    -0.0060545563    -0.6245463517
    3      H       1.3177342473    -0.9419348129     0.9028882161
    4      H       1.3007826150     0.9430931993     0.9216577164
    5      H       2.0182397755     0.0105416120    -0.2937961143
    6      C      -1.2787343836    -0.0002052801     0.2102816712
    7      H      -0.0000000445    -0.8568694888    -1.2501228641
    8      H      -0.0000000365     0.8399343378    -1.2663439088
    9      H      -1.3177324887    -0.9419323349     0.9028881282
   10      H      -2.0182442357     0.0105419630    -0.2937981928
   11      H      -1.3007814076     0.9430914125     0.9216564316
 ----------------------------------------------------------------

    7    -119.0138130521      6.70E-06 Convergence criterion met
    5    -119.0613478970      8.57E-06 Convergence criterion met
 Total energy in the final basis set = -119.06134790

                    Orbital Energies (a.u.)
 --------------------------------------------------------------

 Alpha MOs
 -- Occupied --
-10.2684 -10.2595 -10.2595  -0.8857  -0.7926  -0.6871  -0.5525  -0.5410
 -0.4812  -0.4436  -0.4382  -0.4174  -0.4025

                    Cartesian Multipole Moments
 -----------------------------------------------------------------
    Charge (ESU x 10^10)
                 0.0000
    Dipole Moment (Debye)
         X       0.0000      Y      -0.0203      Z      -0.3899
       Tot       0.3905
    Quadrupole Moments (Debye-Ang)
        XX     -21.7504     XY      -0.0000     YY     -21.2788
        XZ      -0.0000     YZ      -0.0058     ZZ     -21.8649

 Total job time:  24.73s(wall), 66.58s(cpu)
        *  Thank you very much for using Q-Chem.  Have a nice day.  *
