 Q-Chem 5.3 (devel), Q-Chem, Inc., Pleasanton, CA (2020)
 Q-Chem 5.3.0 for Intel X86 EM64T Linux

User input:
--------------------------------------------------------------
$rem
   JOBTYPE  sp
   EXCHANGE   omegaB97X-D
   BASIS   6-311+G(2df,2pd)
   UNRESTRICTED   False
   max_scf_cycles   250
   geom_opt_max_cycles   1500
   basis2 6-31G*
   scf_algorithm rca_diis
   SYM_IGNORE  TRUE
   print_input   true
   geom_opt_dmax   80
   pop_mulliken false
   XC_GRID 000075000302
$end

$molecule
0 1
C       1.2589278085     0.0001215844     0.2378350829
C       -0.0000011773     -0.0003408992     -0.6007253938
H       1.3093076770     -0.9887722483     0.9664999131
H       1.3080692203     0.9883989776     0.9672433050
H       2.2564514708     0.0010402318     -0.4395853842
C       -1.2589305779     0.0001213080     0.2378369355
H       -0.0000014495     -0.8789116920     -1.2605678082
H       -0.0000016057     0.8776747133     -1.2616421398
H       -1.3093083187     -0.9887584325     0.9664910496
H       -2.2564427489     0.0010403932     -0.4395757681
H       -1.3080703591     0.9883867296     0.9672352268
$end
--------------------------------------------------------------

             Standard Nuclear Orientation (Angstroms)
    I     Atom           X                Y                Z
 ----------------------------------------------------------------
    1      C       1.2589278085     0.0001215844     0.2378350829
    2      C      -0.0000011773    -0.0003408992    -0.6007253938
    3      H       1.3093076770    -0.9887722483     0.9664999131
    4      H       1.3080692203     0.9883989776     0.9672433050
    5      H       2.2564514708     0.0010402318    -0.4395853842
    6      C      -1.2589305779     0.0001213080     0.2378369355
    7      H      -0.0000014495    -0.8789116920    -1.2605678082
    8      H      -0.0000016057     0.8776747133    -1.2616421398
    9      H      -1.3093083187    -0.9887584325     0.9664910496
   10      H      -2.2564427489     0.0010403932    -0.4395757681
   11      H      -1.3080703591     0.9883867296     0.9672352268
 ----------------------------------------------------------------

    6    -119.0565284246      9.18E-05 Convergence criterion met
    5    -119.0967819052      7.12E-06 Convergence criterion met
 Total energy in the final basis set = -119.09678191

                    Orbital Energies (a.u.)
 --------------------------------------------------------------

 Alpha MOs
 -- Occupied --
-10.3070 -10.3070 -10.2829  -0.8793  -0.7510  -0.6591  -0.5393  -0.5150
 -0.4703  -0.4379  -0.4134  -0.4132  -0.3984

                    Cartesian Multipole Moments
 -----------------------------------------------------------------
    Charge (ESU x 10^10)
                 0.0000
    Dipole Moment (Debye)
         X      -0.0000      Y      -0.0001      Z      -0.3163
       Tot       0.3163
    Quadrupole Moments (Debye-Ang)
        XX     -23.1458     XY       0.0000     YY     -21.9227
        XZ      -0.0000     YZ      -0.0000     ZZ     -22.3883

 Total job time:  23.46s(wall), 63.36s(cpu)
        *  Thank you very much for using Q-Chem.  Have a nice day.  *
