 Q-Chem 5.2 (devel), Q-Chem, Inc., Pleasanton, CA (2019)
 Q-Chem 5.2.2 for Intel X86 EM64T Linux

User input:
--------------------------------------------------------------
$rem
   JOBTYPE  sp
   EXCHANGE   omegaB97X-D
   BASIS   6-311+G(2df,2pd)
   max_scf_cycles   250
   geom_opt_max_cycles   1500
   basis2 6-31G*
   scf_algorithm rca_diis
   SYM_IGNORE  TRUE
   print_input   true
   geom_opt_dmax   80
   pop_mulliken false
   XC_GRID 000075000302
$end

$molecule
0 1
C       1.2443551286     0.0000900042     0.2159724155
C       -0.0000003293     0.0005453771     -0.6119143812
H       1.3950963420     -0.8344038547     0.9080379883
H       1.3930713201     0.8345496975     0.9084463749
H       2.2119483956     -0.0007417541     -0.2928440122
C       -1.2443558163     0.0000901142     0.2159726295
H       0.0000001934     -0.8753840582     -1.2626915798
H       -0.0000004267     0.8758496831     -1.2635746676
H       -1.3950953229     -0.8344035988     0.9080386852
H       -2.2119481472     -0.0007405586     -0.2928453284
H       -1.3930713979     0.8345496143     0.9084468948
--------------------------------------------------------------

             Standard Nuclear Orientation (Angstroms)
    I     Atom           X                Y                Z
 ----------------------------------------------------------------
    1      C       1.2443551286     0.0000900042     0.2159724155
    2      C      -0.0000003293     0.0005453771    -0.6119143812
    3      H       1.3950963420    -0.8344038547     0.9080379883
    4      H       1.3930713201     0.8345496975     0.9084463749
    5      H       2.2119483956    -0.0007417541    -0.2928440122
    6      C      -1.2443558163     0.0000901142     0.2159726295
    7      H       0.0000001934    -0.8753840582    -1.2626915798
    8      H      -0.0000004267     0.8758496831    -1.2635746676
    9      H      -1.3950953229    -0.8344035988     0.9080386852
   10      H      -2.2119481472    -0.0007405586    -0.2928453284
   11      H      -1.3930713979     0.8345496143     0.9084468948
 ----------------------------------------------------------------

    7    -119.0899007625      4.53E-06 Convergence criterion met
    5    -119.1338087733      9.88E-06 Convergence criterion met
 Total energy in the final basis set = -119.13380877

                    Orbital Energies (a.u.)
 --------------------------------------------------------------

 Alpha MOs
 -- Occupied --
-10.2791 -10.2638 -10.2638  -0.8871  -0.7821  -0.6909  -0.5423  -0.5263
 -0.4918  -0.4498  -0.4236  -0.4198  -0.4012

                    Cartesian Multipole Moments
 -----------------------------------------------------------------
    Charge (ESU x 10^10)
                 0.0000
    Dipole Moment (Debye)
         X       0.0000      Y      -0.0015      Z      -0.0122
       Tot       0.0123
    Quadrupole Moments (Debye-Ang)
        XX     -21.3606     XY      -0.0000     YY     -21.7762
        XZ       0.0000     YZ       0.0004     ZZ     -21.7118

 Total job time:  43.72s(wall), 121.15s(cpu)
        *  Thank you very much for using Q-Chem.  Have a nice day.  *
