 Q-Chem 5.2 (devel), Q-Chem, Inc., Pleasanton, CA (2019)
 Q-Chem 5.2.2 for Intel X86 EM64T Linux

User input:
--------------------------------------------------------------
$rem
   JOBTYPE  sp
   EXCHANGE   omegaB97X-D
   BASIS   6-311+G(2df,2pd)
   max_scf_cycles   250
   geom_opt_max_cycles   1500
   basis2 6-31G*
   scf_algorithm rca_diis
   SYM_IGNORE  TRUE
   print_input   true
   geom_opt_dmax   80
   pop_mulliken false
   XC_GRID 000075000302
$end

$molecule
0 1
C       1.2655842923     0.0479167221     0.2606136920
C       -0.0002363439     0.0000040175     -0.5867857095
H       1.3293403510     -0.9691448549     0.9915185678
H       1.2831067304     0.7906727254     0.8140043494
H       2.1664343850     0.0531667888     -0.3607585244
C       -1.2670087114     -0.0479360233     0.2592329160
H       0.0185610904     -0.8736853315     -1.2425876755
H       -0.0185967185     0.8737023238     -1.2425797008
H       -1.2848012233     -0.7933505986     0.8144964406
H       -2.1611784887     -0.0531498562     -0.3580544497
H       -1.3312054238     0.9718047530     0.9919451129
--------------------------------------------------------------

             Standard Nuclear Orientation (Angstroms)
    I     Atom           X                Y                Z
 ----------------------------------------------------------------
    1      C       1.2655842923     0.0479167221     0.2606136920
    2      C      -0.0002363439     0.0000040175    -0.5867857095
    3      H       1.3293403510    -0.9691448549     0.9915185678
    4      H       1.2831067304     0.7906727254     0.8140043494
    5      H       2.1664343850     0.0531667888    -0.3607585244
    6      C      -1.2670087114    -0.0479360233     0.2592329160
    7      H       0.0185610904    -0.8736853315    -1.2425876755
    8      H      -0.0185967185     0.8737023238    -1.2425797008
    9      H      -1.2848012233    -0.7933505986     0.8144964406
   10      H      -2.1611784887    -0.0531498562    -0.3580544497
   11      H      -1.3312054238     0.9718047530     0.9919451129
 ----------------------------------------------------------------

    7    -119.0319693244      5.96E-06 Convergence criterion met
    5    -119.0778561432      9.00E-06 Convergence criterion met
 Total energy in the final basis set = -119.07785614

                    Orbital Energies (a.u.)
 --------------------------------------------------------------

 Alpha MOs
 -- Occupied --
-10.2759 -10.2636 -10.2635  -0.8856  -0.7868  -0.6862  -0.5507  -0.5262
 -0.4858  -0.4688  -0.4204  -0.4123  -0.4026

                    Cartesian Multipole Moments
 -----------------------------------------------------------------
    Charge (ESU x 10^10)
                -0.0000
    Dipole Moment (Debye)
         X      -0.0048      Y      -0.0025      Z      -0.1868
       Tot       0.1869
    Quadrupole Moments (Debye-Ang)
        XX     -22.1723     XY       0.6051     YY     -21.3577
        XZ       0.0072     YZ      -0.0013     ZZ     -21.9134

 Total job time:  42.82s(wall), 118.72s(cpu)
        *  Thank you very much for using Q-Chem.  Have a nice day.  *
