 Q-Chem 5.2 (devel), Q-Chem, Inc., Pleasanton, CA (2019)
 Q-Chem 5.2.2 for Intel X86 EM64T Linux

User input:
--------------------------------------------------------------
$rem
   JOBTYPE  sp
   EXCHANGE   omegaB97X-D
   BASIS   6-311+G(2df,2pd)
   max_scf_cycles   250
   geom_opt_max_cycles   1500
   basis2 6-31G*
   scf_algorithm rca_diis
   SYM_IGNORE  TRUE
   print_input   true
   geom_opt_dmax   80
   pop_mulliken false
   XC_GRID 000075000302
$end

$molecule
0 1
C       1.2340236176     0.0021173643     0.2104805853
C       -0.1015122828     0.0001250977     -0.5812522696
H       1.3185358455     -0.8514265945     0.8906902145
H       1.3101974856     0.8533318813     0.8943023588
H       2.1659200384     -0.0033718747     -0.3587764753
C       -1.3051313915     -0.0019051664     0.3063658646
H       0.0691840855     -0.8601148778     -1.2328706670
H       0.0782886697     0.8588627295     -1.2324034606
H       -1.3028471675     -0.9081141541     0.9103376397
H       -2.1556872242     0.0042432191     -0.3735251719
H       -1.3109717368     0.9062530416     0.9076964005
--------------------------------------------------------------

             Standard Nuclear Orientation (Angstroms)
    I     Atom           X                Y                Z
 ----------------------------------------------------------------
    1      C       1.2340236176     0.0021173643     0.2104805853
    2      C      -0.1015122828     0.0001250977    -0.5812522696
    3      H       1.3185358455    -0.8514265945     0.8906902145
    4      H       1.3101974856     0.8533318813     0.8943023588
    5      H       2.1659200384    -0.0033718747    -0.3587764753
    6      C      -1.3051313915    -0.0019051664     0.3063658646
    7      H       0.0691840855    -0.8601148778    -1.2328706670
    8      H       0.0782886697     0.8588627295    -1.2324034606
    9      H      -1.3028471675    -0.9081141541     0.9103376397
   10      H      -2.1556872242     0.0042432191    -0.3735251719
   11      H      -1.3109717368     0.9062530416     0.9076964005
 ----------------------------------------------------------------

    7    -119.0902752038      5.07E-06 Convergence criterion met
    5    -119.1336946617      9.89E-06 Convergence criterion met
 Total energy in the final basis set = -119.13369466

                    Orbital Energies (a.u.)
 --------------------------------------------------------------

 Alpha MOs
 -- Occupied --
-10.2748 -10.2692 -10.2622  -0.8835  -0.7793  -0.6790  -0.5466  -0.5245
 -0.4876  -0.4647  -0.4275  -0.4029  -0.4027

                    Cartesian Multipole Moments
 -----------------------------------------------------------------
    Charge (ESU x 10^10)
                 0.0000
    Dipole Moment (Debye)
         X      -0.0319      Y      -0.0009      Z      -0.0725
       Tot       0.0792
    Quadrupole Moments (Debye-Ang)
        XX     -22.1510     XY      -0.0255     YY     -21.4363
        XZ      -0.2206     YZ       0.0015     ZZ     -21.9016

 Total job time:  44.68s(wall), 124.14s(cpu)
        *  Thank you very much for using Q-Chem.  Have a nice day.  *
