 Q-Chem 5.3 (devel), Q-Chem, Inc., Pleasanton, CA (2020)
 Q-Chem 5.3.0 for Intel X86 EM64T Linux

User input:
--------------------------------------------------------------
$rem
   JOBTYPE  sp
   EXCHANGE   omegaB97X-D
   BASIS   6-311+G(2df,2pd)
   UNRESTRICTED   False
   max_scf_cycles   250
   geom_opt_max_cycles   1500
   basis2 6-31G*
   scf_algorithm rca_diis
   SYM_IGNORE  TRUE
   print_input   true
   geom_opt_dmax   80
   pop_mulliken false
   XC_GRID 000075000302
$end

$molecule
0 1
C       1.2636493621     -0.0138219628     0.2485686928
C       0.0000001781     -0.0037157177     -0.6213733869
H       1.2612788970     -0.9107948145     0.8677374225
H       1.3648161181     0.9061953258     0.8280508690
H       2.1795611296     0.0149231734     -0.3468836322
C       -1.2636489925     -0.0138235963     0.2485689110
H       0.0000009195     -0.9627863938     -1.1347266835
H       -0.0000010859     0.9734959041     -1.0978006209
H       -1.2612740045     -0.9107972566     0.8677359593
H       -2.1795613702     0.0149318328     -0.3468821615
H       -1.3648212119     0.9061941716     0.8280496492
$end
--------------------------------------------------------------

             Standard Nuclear Orientation (Angstroms)
    I     Atom           X                Y                Z
 ----------------------------------------------------------------
    1      C       1.2636493621    -0.0138219628     0.2485686928
    2      C       0.0000001781    -0.0037157177    -0.6213733869
    3      H       1.2612788970    -0.9107948145     0.8677374225
    4      H       1.3648161181     0.9061953258     0.8280508690
    5      H       2.1795611296     0.0149231734    -0.3468836322
    6      C      -1.2636489925    -0.0138235963     0.2485689110
    7      H       0.0000009195    -0.9627863938    -1.1347266835
    8      H      -0.0000010859     0.9734959041    -1.0978006209
    9      H      -1.2612740045    -0.9107972566     0.8677359593
   10      H      -2.1795613702     0.0149318328    -0.3468821615
   11      H      -1.3648212119     0.9061941716     0.8280496492
 ----------------------------------------------------------------

    7    -119.0895989820      5.92E-06 Convergence criterion met
    5    -119.1330596036      9.16E-06 Convergence criterion met
 Total energy in the final basis set = -119.13305960

                    Orbital Energies (a.u.)
 --------------------------------------------------------------

 Alpha MOs
 -- Occupied --
-10.2760 -10.2642 -10.2642  -0.8826  -0.7764  -0.6720  -0.5680  -0.5147
 -0.4759  -0.4694  -0.4245  -0.4150  -0.3945

                    Cartesian Multipole Moments
 -----------------------------------------------------------------
    Charge (ESU x 10^10)
                -0.0000
    Dipole Moment (Debye)
         X      -0.0000      Y       0.0594      Z      -0.0599
       Tot       0.0844
    Quadrupole Moments (Debye-Ang)
        XX     -22.2373     XY      -0.0000     YY     -20.6282
        XZ      -0.0000     YZ      -0.0907     ZZ     -22.8205

 Total job time:  26.23s(wall), 69.96s(cpu)
        *  Thank you very much for using Q-Chem.  Have a nice day.  *
