 Q-Chem 5.3 (devel), Q-Chem, Inc., Pleasanton, CA (2020)
 Q-Chem 5.3.0 for Intel X86 EM64T Linux

User input:
--------------------------------------------------------------
$rem
   JOBTYPE  sp
   EXCHANGE   omegaB97X-D
   BASIS   6-311+G(2df,2pd)
   UNRESTRICTED   False
   max_scf_cycles   250
   geom_opt_max_cycles   1500
   basis2 6-31G*
   scf_algorithm rca_diis
   SYM_IGNORE  TRUE
   print_input   true
   geom_opt_dmax   80
   pop_mulliken false
   XC_GRID 000075000302
$end

$molecule
0 1
C       1.2640395927     0.0038977130     0.2738063514
C       0.0000000075     0.0293059043     -0.5732212024
H       1.3036878375     -0.8946758025     0.8925120911
H       1.3341271111     0.9262488270     0.8506736058
H       2.1737796464     -0.1042441499     -0.3203617377
C       -1.2640396268     0.0038972676     0.2738061836
H       0.0000002436     -0.8109249757     -1.2715856737
H       -0.0000002406     0.9191662496     -1.2074089903
H       -1.3036873157     -0.8946763263     0.8925117631
H       -2.1737797971     -0.1042415603     -0.3203622242
H       -1.3341275190     0.9262475192     0.8506748522
$end
--------------------------------------------------------------

             Standard Nuclear Orientation (Angstroms)
    I     Atom           X                Y                Z
 ----------------------------------------------------------------
    1      C       1.2640395927     0.0038977130     0.2738063514
    2      C       0.0000000075     0.0293059043    -0.5732212024
    3      H       1.3036878375    -0.8946758025     0.8925120911
    4      H       1.3341271111     0.9262488270     0.8506736058
    5      H       2.1737796464    -0.1042441499    -0.3203617377
    6      C      -1.2640396268     0.0038972676     0.2738061836
    7      H       0.0000002436    -0.8109249757    -1.2715856737
    8      H      -0.0000002406     0.9191662496    -1.2074089903
    9      H      -1.3036873157    -0.8946763263     0.8925117631
   10      H      -2.1737797971    -0.1042415603    -0.3203622242
   11      H      -1.3341275190     0.9262475192     0.8506748522
 ----------------------------------------------------------------

    7    -119.0994092571      4.89E-06 Convergence criterion met
    6    -119.1425348268      3.73E-06 Convergence criterion met
 Total energy in the final basis set = -119.14253483

                    Orbital Energies (a.u.)
 --------------------------------------------------------------

 Alpha MOs
 -- Occupied --
-10.2735 -10.2650 -10.2650  -0.8817  -0.7779  -0.6774  -0.5514  -0.5219
 -0.4764  -0.4707  -0.4180  -0.4112  -0.4097

                    Cartesian Multipole Moments
 -----------------------------------------------------------------
    Charge (ESU x 10^10)
                -0.0000
    Dipole Moment (Debye)
         X       0.0000      Y      -0.0472      Z      -0.1292
       Tot       0.1376
    Quadrupole Moments (Debye-Ang)
        XX     -22.0423     XY      -0.0000     YY     -21.0408
        XZ       0.0000     YZ       0.1046     ZZ     -22.2261

 Total job time:  27.95s(wall), 75.82s(cpu)
        *  Thank you very much for using Q-Chem.  Have a nice day.  *
