 Q-Chem 5.3 (devel), Q-Chem, Inc., Pleasanton, CA (2020)
 Q-Chem 5.3.0 for Intel X86 EM64T Linux

User input:
--------------------------------------------------------------
$rem
   JOBTYPE  sp
   EXCHANGE   omegaB97X-D
   BASIS   6-311+G(2df,2pd)
   UNRESTRICTED   False
   max_scf_cycles   250
   geom_opt_max_cycles   1500
   basis2 6-31G*
   scf_algorithm rca_diis
   SYM_IGNORE  TRUE
   print_input   true
   geom_opt_dmax   80
   pop_mulliken false
   XC_GRID 000075000302
$end

$molecule
0 1
C       1.2676458386     0.0080991136     0.2644189296
C       -0.0000000855     0.0032293334     -0.5724519807
H       1.3250786355     -0.8638996970     0.9206334234
H       1.2750034890     0.8653923539     0.9404545189
H       2.1562981512     -0.0071392170     -0.3653513223
C       -1.2676460268     0.0080999927     0.2644187864
H       -0.0000004213     -0.8194909762     -1.2950233169
H       0.0000004355     0.8113579085     -1.3117912853
H       -1.3250811699     -0.8638982517     0.9206340237
H       -2.1562979270     -0.0071425117     -0.3653518602
H       -1.2750009799     0.8653926174     0.9404551023
$end
--------------------------------------------------------------

             Standard Nuclear Orientation (Angstroms)
    I     Atom           X                Y                Z
 ----------------------------------------------------------------
    1      C       1.2676458386     0.0080991136     0.2644189296
    2      C      -0.0000000855     0.0032293334    -0.5724519807
    3      H       1.3250786355    -0.8638996970     0.9206334234
    4      H       1.2750034890     0.8653923539     0.9404545189
    5      H       2.1562981512    -0.0071392170    -0.3653513223
    6      C      -1.2676460268     0.0080999927     0.2644187864
    7      H      -0.0000004213    -0.8194909762    -1.2950233169
    8      H       0.0000004355     0.8113579085    -1.3117912853
    9      H      -1.3250811699    -0.8638982517     0.9206340237
   10      H      -2.1562979270    -0.0071425117    -0.3653518602
   11      H      -1.2750009799     0.8653926174     0.9404551023
 ----------------------------------------------------------------

    7    -119.0993918233      4.63E-06 Convergence criterion met
    6    -119.1425586824      3.96E-06 Convergence criterion met
 Total energy in the final basis set = -119.14255868

                    Orbital Energies (a.u.)
 --------------------------------------------------------------

 Alpha MOs
 -- Occupied --
-10.2736 -10.2658 -10.2658  -0.8815  -0.7779  -0.6826  -0.5368  -0.5275
 -0.4887  -0.4589  -0.4300  -0.4193  -0.3950

                    Cartesian Multipole Moments
 -----------------------------------------------------------------
    Charge (ESU x 10^10)
                -0.0000
    Dipole Moment (Debye)
         X       0.0000      Y      -0.0347      Z      -0.1005
       Tot       0.1063
    Quadrupole Moments (Debye-Ang)
        XX     -22.1242     XY       0.0000     YY     -21.8178
        XZ       0.0000     YZ       0.0504     ZZ     -21.3402

 Total job time:  27.59s(wall), 74.99s(cpu)
        *  Thank you very much for using Q-Chem.  Have a nice day.  *
