 Q-Chem 5.2 (devel), Q-Chem, Inc., Pleasanton, CA (2019)
 Q-Chem 5.2.2 for Intel X86 EM64T Linux

User input:
--------------------------------------------------------------
$rem
   JOBTYPE  sp
   EXCHANGE   omegaB97X-D
   BASIS   6-311+G(2df,2pd)
   max_scf_cycles   250
   geom_opt_max_cycles   1500
   basis2 6-31G*
   scf_algorithm rca_diis
   SYM_IGNORE  TRUE
   print_input   true
   geom_opt_dmax   80
   pop_mulliken false
   XC_GRID 000075000302
$end

$molecule
0 1
C       1.2655022862     0.0129665167     0.2684582779
C       -0.0000001782     0.0142487722     -0.5624678561
H       1.3260170081     -0.8428009336     0.9470026887
H       1.2548589408     0.8534277684     0.9651619288
H       2.1464535792     -0.0401239577     -0.3679992596
C       -1.2655026890     0.0129680294     0.2684579845
H       -0.0000006504     -0.7438768095     -1.3558511732
H       0.0000007669     0.7626937516     -1.3658842714
H       -1.3260228926     -0.8427993914     0.9470023478
H       -2.1464529870     -0.0401297556     -0.3680001497
H       -1.2548532446     0.8534266755     0.9651645010
--------------------------------------------------------------

             Standard Nuclear Orientation (Angstroms)
    I     Atom           X                Y                Z
 ----------------------------------------------------------------
    1      C       1.2655022862     0.0129665167     0.2684582779
    2      C      -0.0000001782     0.0142487722    -0.5624678561
    3      H       1.3260170081    -0.8428009336     0.9470026887
    4      H       1.2548589408     0.8534277684     0.9651619288
    5      H       2.1464535792    -0.0401239577    -0.3679992596
    6      C      -1.2655026890     0.0129680294     0.2684579845
    7      H      -0.0000006504    -0.7438768095    -1.3558511732
    8      H       0.0000007669     0.7626937516    -1.3658842714
    9      H      -1.3260228926    -0.8427993914     0.9470023478
   10      H      -2.1464529870    -0.0401297556    -0.3680001497
   11      H      -1.2548532446     0.8534266755     0.9651645010
 ----------------------------------------------------------------

    7    -119.0882845355      5.37E-06 Convergence criterion met
    6    -119.1321383826      4.06E-06 Convergence criterion met
 Total energy in the final basis set = -119.13213838

                    Orbital Energies (a.u.)
 --------------------------------------------------------------

 Alpha MOs
 -- Occupied --
-10.2736 -10.2666 -10.2666  -0.8828  -0.7787  -0.6891  -0.5384  -0.5211
 -0.4947  -0.4554  -0.4427  -0.4180  -0.3804

                    Cartesian Multipole Moments
 -----------------------------------------------------------------
    Charge (ESU x 10^10)
                 0.0000
    Dipole Moment (Debye)
         X       0.0000      Y      -0.0692      Z      -0.1246
       Tot       0.1425
    Quadrupole Moments (Debye-Ang)
        XX     -22.1153     XY       0.0000     YY     -22.2983
        XZ      -0.0000     YZ       0.1012     ZZ     -20.8381

 Total job time:  48.70s(wall), 135.70s(cpu)
        *  Thank you very much for using Q-Chem.  Have a nice day.  *
