 Q-Chem 5.3 (devel), Q-Chem, Inc., Pleasanton, CA (2020)
 Q-Chem 5.3.0 for Intel X86 EM64T Linux

User input:
--------------------------------------------------------------
$rem
   JOBTYPE  sp
   EXCHANGE   omegaB97X-D
   BASIS   6-311+G(2df,2pd)
   UNRESTRICTED   False
   max_scf_cycles   250
   geom_opt_max_cycles   1500
   basis2 6-31G*
   scf_algorithm rca_diis
   SYM_IGNORE  TRUE
   print_input   true
   geom_opt_dmax   80
   pop_mulliken false
   XC_GRID 000075000302
$end

$molecule
0 1
C       1.2884277734     0.1248441566     0.2210523808
C       0.0141218872     -0.0017312066     -0.5850332184
H       1.0894889992     -0.8386137074     0.7038917240
H       1.4146325275     0.8289524548     1.0423100764
H       2.2232909724     -0.0283978640     -0.3163861908
C       -1.2370436110     -0.1079639793     0.2977618203
H       0.2491714010     -0.8464031860     -1.2369823021
H       -0.3308174871     0.8044276518     -1.2368625704
H       -1.4989282650     -0.8475878217     1.0512831776
H       -2.0778106514     0.0440726035     -0.3819081651
H       -1.1345336068     0.8684015641     0.7819182866
$end
--------------------------------------------------------------

             Standard Nuclear Orientation (Angstroms)
    I     Atom           X                Y                Z
 ----------------------------------------------------------------
    1      C       1.2884277734     0.1248441566     0.2210523808
    2      C       0.0141218872    -0.0017312066    -0.5850332184
    3      H       1.0894889992    -0.8386137074     0.7038917240
    4      H       1.4146325275     0.8289524548     1.0423100764
    5      H       2.2232909724    -0.0283978640    -0.3163861908
    6      C      -1.2370436110    -0.1079639793     0.2977618203
    7      H       0.2491714010    -0.8464031860    -1.2369823021
    8      H      -0.3308174871     0.8044276518    -1.2368625704
    9      H      -1.4989282650    -0.8475878217     1.0512831776
   10      H      -2.0778106514     0.0440726035    -0.3819081651
   11      H      -1.1345336068     0.8684015641     0.7819182866
 ----------------------------------------------------------------

    7    -119.0671113481      5.09E-06 Convergence criterion met
    6    -119.1113001132      4.35E-06 Convergence criterion met
 Total energy in the final basis set = -119.11130011

                    Orbital Energies (a.u.)
 --------------------------------------------------------------

 Alpha MOs
 -- Occupied --
-10.2812 -10.2675 -10.2657  -0.8906  -0.7828  -0.6778  -0.5556  -0.5317
 -0.4791  -0.4665  -0.4211  -0.4070  -0.3958

                    Cartesian Multipole Moments
 -----------------------------------------------------------------
    Charge (ESU x 10^10)
                 0.0000
    Dipole Moment (Debye)
         X      -0.0401      Y      -0.0594      Z      -0.0253
       Tot       0.0760
    Quadrupole Moments (Debye-Ang)
        XX     -21.9443     XY      -0.1662     YY     -21.8096
        XZ      -0.0319     YZ       0.0882     ZZ     -21.8359

 Total job time:  27.68s(wall), 74.98s(cpu)
        *  Thank you very much for using Q-Chem.  Have a nice day.  *
