 Q-Chem 5.3 (devel), Q-Chem, Inc., Pleasanton, CA (2020)
 Q-Chem 5.3.0 for Intel X86 EM64T Linux

User input:
--------------------------------------------------------------
$rem
   JOBTYPE  sp
   EXCHANGE   omegaB97X-D
   BASIS   6-311+G(2df,2pd)
   UNRESTRICTED   False
   max_scf_cycles   250
   geom_opt_max_cycles   1500
   basis2 6-31G*
   scf_algorithm rca_diis
   SYM_IGNORE  TRUE
   print_input   true
   geom_opt_dmax   80
   pop_mulliken false
   XC_GRID 000075000302
$end

$molecule
0 1
C       1.2593040118     0.0529821699     0.2674156281
C       -0.0000001291     -0.0400661059     -0.6117931946
H       1.1413522359     -0.8044955648     0.9377324657
H       1.4985319014     0.9061419380     0.9003144263
H       2.1057067953     -0.2107702685     -0.3681979536
C       -1.2593042970     0.0529822075     0.2674155570
H       -0.0000006207     -0.7823626968     -1.4132733862
H       0.0000007189     0.9347131489     -1.1084174136
H       -1.1413524447     -0.8044955555     0.9377323242
H       -2.1057069442     -0.2107705502     -0.3681980531
H       -1.4985312881     0.9061419434     0.9003146186
$end
--------------------------------------------------------------

             Standard Nuclear Orientation (Angstroms)
    I     Atom           X                Y                Z
 ----------------------------------------------------------------
    1      C       1.2593040118     0.0529821699     0.2674156281
    2      C      -0.0000001291    -0.0400661059    -0.6117931946
    3      H       1.1413522359    -0.8044955648     0.9377324657
    4      H       1.4985319014     0.9061419380     0.9003144263
    5      H       2.1057067953    -0.2107702685    -0.3681979536
    6      C      -1.2593042970     0.0529822075     0.2674155570
    7      H      -0.0000006207    -0.7823626968    -1.4132733862
    8      H       0.0000007189     0.9347131489    -1.1084174136
    9      H      -1.1413524447    -0.8044955555     0.9377323242
   10      H      -2.1057069442    -0.2107705502    -0.3681980531
   11      H      -1.4985312881     0.9061419434     0.9003146186
 ----------------------------------------------------------------

    7    -119.0786603561      5.76E-06 Convergence criterion met
    5    -119.1223057389      9.49E-06 Convergence criterion met
 Total energy in the final basis set = -119.12230574

                    Orbital Energies (a.u.)
 --------------------------------------------------------------

 Alpha MOs
 -- Occupied --
-10.2787 -10.2655 -10.2655  -0.8809  -0.7759  -0.6807  -0.5434  -0.5233
 -0.4960  -0.4512  -0.4441  -0.4043  -0.3836

                    Cartesian Multipole Moments
 -----------------------------------------------------------------
    Charge (ESU x 10^10)
                -0.0000
    Dipole Moment (Debye)
         X       0.0000      Y       0.0073      Z      -0.1143
       Tot       0.1145
    Quadrupole Moments (Debye-Ang)
        XX     -22.4800     XY       0.0000     YY     -21.4758
        XZ       0.0000     YZ       0.9617     ZZ     -21.5731

 Total job time:  25.13s(wall), 67.56s(cpu)
        *  Thank you very much for using Q-Chem.  Have a nice day.  *
