 Q-Chem 5.3 (devel), Q-Chem, Inc., Pleasanton, CA (2020)
 Q-Chem 5.3.0 for Intel X86 EM64T Linux

User input:
--------------------------------------------------------------
$rem
   JOBTYPE  sp
   EXCHANGE   omegaB97X-D
   BASIS   6-311+G(2df,2pd)
   UNRESTRICTED   False
   max_scf_cycles   250
   geom_opt_max_cycles   1500
   basis2 6-31G*
   scf_algorithm rca_diis
   SYM_IGNORE  TRUE
   print_input   true
   geom_opt_dmax   80
   pop_mulliken false
   XC_GRID 000075000302
$end

$molecule
0 1
C       1.2300220350     -0.0422540711     0.3955708952
C       0.0000001141     0.1162320786     -0.6302761359
H       1.4477959789     -0.8979943064     1.0288081789
H       1.6220518390     0.8876987422     0.8106678796
H       1.8974718393     -0.1416734752     -0.4696327426
C       -1.2300221623     -0.0422542393     0.3955710210
H       -0.0000005610     -0.7442827361     -1.3081646870
H       0.0000002420     1.0164974875     -1.2513427940
H       -1.4477958669     -0.8979945772     1.0288081770
H       -1.8974714774     -0.1416726475     -0.4696330267
H       -1.6220520414     0.8876984104     0.8106682533
$end
--------------------------------------------------------------

             Standard Nuclear Orientation (Angstroms)
    I     Atom           X                Y                Z
 ----------------------------------------------------------------
    1      C       1.2300220350    -0.0422540711     0.3955708952
    2      C       0.0000001141     0.1162320786    -0.6302761359
    3      H       1.4477959789    -0.8979943064     1.0288081789
    4      H       1.6220518390     0.8876987422     0.8106678796
    5      H       1.8974718393    -0.1416734752    -0.4696327426
    6      C      -1.2300221623    -0.0422542393     0.3955710210
    7      H      -0.0000005610    -0.7442827361    -1.3081646870
    8      H       0.0000002420     1.0164974875    -1.2513427940
    9      H      -1.4477958669    -0.8979945772     1.0288081770
   10      H      -1.8974714774    -0.1416726475    -0.4696330267
   11      H      -1.6220520414     0.8876984104     0.8106682533
 ----------------------------------------------------------------

    7    -119.0314404925      5.07E-06 Convergence criterion met
    6    -119.0761557744      5.27E-06 Convergence criterion met
 Total energy in the final basis set = -119.07615577

                    Orbital Energies (a.u.)
 --------------------------------------------------------------

 Alpha MOs
 -- Occupied --
-10.2986 -10.2642 -10.2642  -0.8685  -0.7728  -0.6864  -0.5376  -0.4969
 -0.4927  -0.4653  -0.4579  -0.4159  -0.3348

                    Cartesian Multipole Moments
 -----------------------------------------------------------------
    Charge (ESU x 10^10)
                -0.0000
    Dipole Moment (Debye)
         X       0.0000      Y       0.0065      Z      -0.4373
       Tot       0.4373
    Quadrupole Moments (Debye-Ang)
        XX     -23.5593     XY      -0.0000     YY     -21.0267
        XZ       0.0000     YZ      -0.6871     ZZ     -21.1167

 Total job time:  27.55s(wall), 75.04s(cpu)
        *  Thank you very much for using Q-Chem.  Have a nice day.  *
