 Q-Chem 5.3 (devel), Q-Chem, Inc., Pleasanton, CA (2020)
 Q-Chem 5.3.0 for Intel X86 EM64T Linux

User input:
--------------------------------------------------------------
$rem
   JOBTYPE  sp
   EXCHANGE   omegaB97X-D
   BASIS   6-311+G(2df,2pd)
   UNRESTRICTED   False
   max_scf_cycles   250
   geom_opt_max_cycles   1500
   basis2 6-31G*
   scf_algorithm rca_diis
   SYM_IGNORE  TRUE
   print_input   true
   geom_opt_dmax   80
   pop_mulliken false
   XC_GRID 000075000302
$end

$molecule
0 1
C       1.2370440092     -0.1079643844     0.2977614581
C       -0.0141218051     -0.0017315956     -0.5850332497
H       1.4989291492     -0.8475879858     1.0512828581
H       1.1345319377     0.8684005322     0.7819188318
H       2.0778110708     0.0440741266     -0.3819080532
C       -1.2884278025     0.1248439775     0.2210522691
H       -0.2491715175     -0.8464039732     -1.2369818333
H       0.3308173664     0.8044268216     -1.2368631174
H       -1.0894896455     -0.8386137399     0.7038920536
H       -2.2232914144     -0.0283955724     -0.3163862681
H       -1.4146314089     0.8289524594     1.0423100700
$end
--------------------------------------------------------------

             Standard Nuclear Orientation (Angstroms)
    I     Atom           X                Y                Z
 ----------------------------------------------------------------
    1      C       1.2370440092    -0.1079643844     0.2977614581
    2      C      -0.0141218051    -0.0017315956    -0.5850332497
    3      H       1.4989291492    -0.8475879858     1.0512828581
    4      H       1.1345319377     0.8684005322     0.7819188318
    5      H       2.0778110708     0.0440741266    -0.3819080532
    6      C      -1.2884278025     0.1248439775     0.2210522691
    7      H      -0.2491715175    -0.8464039732    -1.2369818333
    8      H       0.3308173664     0.8044268216    -1.2368631174
    9      H      -1.0894896455    -0.8386137399     0.7038920536
   10      H      -2.2232914144    -0.0283955724    -0.3163862681
   11      H      -1.4146314089     0.8289524594     1.0423100700
 ----------------------------------------------------------------

    7    -119.0671113785      5.09E-06 Convergence criterion met
    6    -119.1113001419      4.35E-06 Convergence criterion met
 Total energy in the final basis set = -119.11130014

                    Orbital Energies (a.u.)
 --------------------------------------------------------------

 Alpha MOs
 -- Occupied --
-10.2812 -10.2675 -10.2657  -0.8906  -0.7828  -0.6778  -0.5556  -0.5317
 -0.4791  -0.4665  -0.4211  -0.4070  -0.3958

                    Cartesian Multipole Moments
 -----------------------------------------------------------------
    Charge (ESU x 10^10)
                 0.0000
    Dipole Moment (Debye)
         X       0.0401      Y      -0.0594      Z      -0.0253
       Tot       0.0760
    Quadrupole Moments (Debye-Ang)
        XX     -21.9443     XY       0.1662     YY     -21.8096
        XZ       0.0319     YZ       0.0882     ZZ     -21.8359

 Total job time:  27.90s(wall), 75.43s(cpu)
        *  Thank you very much for using Q-Chem.  Have a nice day.  *
