 Q-Chem 5.2 (devel), Q-Chem, Inc., Pleasanton, CA (2019)
 Q-Chem 5.2.2 for Intel X86 EM64T Linux

User input:
--------------------------------------------------------------
$rem
   JOBTYPE  sp
   EXCHANGE   omegaB97X-D
   BASIS   6-311+G(2df,2pd)
   max_scf_cycles   250
   geom_opt_max_cycles   1500
   basis2 6-31G*
   scf_algorithm rca_diis
   SYM_IGNORE  TRUE
   print_input   true
   geom_opt_dmax   80
   pop_mulliken false
   XC_GRID 000075000302
$end

$molecule
0 1
C       1.2385961539     0.1215633850     0.2794213573
C       -0.0000001887     -0.1444877474     -0.6109200149
H       1.1881085739     -0.8115459110     0.8534356823
H       1.4969615538     0.9148003327     0.9761061564
H       2.0610066125     -0.1254052739     -0.3937636059
C       -1.2385965628     0.1215635330     0.2794212220
H       -0.0000010550     -0.8999018387     -1.3998876571
H       0.0000010850     0.8455659206     -1.0785461981
H       -1.1881089928     -0.8115458919     0.8534353164
H       -2.0610066965     -0.1254062242     -0.3937637029
H       -1.4969605439     0.9148003819     0.9761064635
--------------------------------------------------------------

             Standard Nuclear Orientation (Angstroms)
    I     Atom           X                Y                Z
 ----------------------------------------------------------------
    1      C       1.2385961539     0.1215633850     0.2794213573
    2      C      -0.0000001887    -0.1444877474    -0.6109200149
    3      H       1.1881085739    -0.8115459110     0.8534356823
    4      H       1.4969615538     0.9148003327     0.9761061564
    5      H       2.0610066125    -0.1254052739    -0.3937636059
    6      C      -1.2385965628     0.1215635330     0.2794212220
    7      H      -0.0000010550    -0.8999018387    -1.3998876571
    8      H       0.0000010850     0.8455659206    -1.0785461981
    9      H      -1.1881089928    -0.8115458919     0.8534353164
   10      H      -2.0610066965    -0.1254062242    -0.3937637029
   11      H      -1.4969605439     0.9148003819     0.9761064635
 ----------------------------------------------------------------

    7    -119.0330081351      7.62E-06 Convergence criterion met
    5    -119.0781380240      8.36E-06 Convergence criterion met
 Total energy in the final basis set = -119.07813802

                    Orbital Energies (a.u.)
 --------------------------------------------------------------

 Alpha MOs
 -- Occupied --
-10.2835 -10.2657 -10.2657  -0.8850  -0.7770  -0.6810  -0.5475  -0.5199
 -0.5078  -0.4644  -0.4431  -0.3846  -0.3593

                    Cartesian Multipole Moments
 -----------------------------------------------------------------
    Charge (ESU x 10^10)
                -0.0000
    Dipole Moment (Debye)
         X       0.0000      Y      -0.0329      Z      -0.1562
       Tot       0.1597
    Quadrupole Moments (Debye-Ang)
        XX     -22.9542     XY       0.0000     YY     -21.2896
        XZ       0.0000     YZ       1.6224     ZZ     -21.5802

 Total job time:  44.89s(wall), 124.31s(cpu)
        *  Thank you very much for using Q-Chem.  Have a nice day.  *
