 Q-Chem 5.3 (devel), Q-Chem, Inc., Pleasanton, CA (2020)
 Q-Chem 5.3.0 for Intel X86 EM64T Linux

User input:
--------------------------------------------------------------
$rem
   JOBTYPE  sp
   EXCHANGE   omegaB97X-D
   BASIS   6-311+G(2df,2pd)
   UNRESTRICTED   False
   max_scf_cycles   250
   geom_opt_max_cycles   1500
   basis2 6-31G*
   scf_algorithm rca_diis
   SYM_IGNORE  TRUE
   print_input   true
   geom_opt_dmax   80
   pop_mulliken false
   XC_GRID 000075000302
$end

$molecule
0 1
C       1.2672044894     0.0008313737     0.2592698630
C       0.0000000197     -0.0103700813     -0.5874082975
H       1.2989475690     -0.8943672347     0.9276526338
H       1.3112965130     0.8668485382     0.8799044475
H       2.1643028695     -0.0153997794     -0.3598129743
C       -1.2672044226     0.0008312004     0.2592698752
H       0.0000000432     -0.8265060342     -1.2052781334
H       -0.0000000776     0.9210500761     -1.2802964860
H       -1.2989474353     -0.8943670317     0.9276524215
H       -2.1643030980     -0.0153992593     -0.3598131511
H       -1.3112965311     0.8668488982     0.8799048203
$end
--------------------------------------------------------------

             Standard Nuclear Orientation (Angstroms)
    I     Atom           X                Y                Z
 ----------------------------------------------------------------
    1      C       1.2672044894     0.0008313737     0.2592698630
    2      C       0.0000000197    -0.0103700813    -0.5874082975
    3      H       1.2989475690    -0.8943672347     0.9276526338
    4      H       1.3112965130     0.8668485382     0.8799044475
    5      H       2.1643028695    -0.0153997794    -0.3598129743
    6      C      -1.2672044226     0.0008312004     0.2592698752
    7      H       0.0000000432    -0.8265060342    -1.2052781334
    8      H      -0.0000000776     0.9210500761    -1.2802964860
    9      H      -1.2989474353    -0.8943670317     0.9276524215
   10      H      -2.1643030980    -0.0153992593    -0.3598131511
   11      H      -1.3112965311     0.8668488982     0.8799048203
 ----------------------------------------------------------------

    7    -119.0957757120      4.69E-06 Convergence criterion met
    6    -119.1389945135      3.91E-06 Convergence criterion met
 Total energy in the final basis set = -119.13899451

                    Orbital Energies (a.u.)
 --------------------------------------------------------------

 Alpha MOs
 -- Occupied --
-10.2736 -10.2652 -10.2652  -0.8819  -0.7775  -0.6799  -0.5455  -0.5240
 -0.4841  -0.4624  -0.4229  -0.4189  -0.4028

                    Cartesian Multipole Moments
 -----------------------------------------------------------------
    Charge (ESU x 10^10)
                 0.0000
    Dipole Moment (Debye)
         X       0.0000      Y      -0.0224      Z      -0.0777
       Tot       0.0809
    Quadrupole Moments (Debye-Ang)
        XX     -22.1521     XY      -0.0000     YY     -21.3665
        XZ       0.0000     YZ       0.1320     ZZ     -21.8604

 Total job time:  26.39s(wall), 72.06s(cpu)
        *  Thank you very much for using Q-Chem.  Have a nice day.  *
