 Q-Chem 5.3 (devel), Q-Chem, Inc., Pleasanton, CA (2020)
 Q-Chem 5.3.0 for Intel X86 EM64T Linux

User input:
--------------------------------------------------------------
$rem
   JOBTYPE  sp
   EXCHANGE   omegaB97X-D
   BASIS   6-311+G(2df,2pd)
   UNRESTRICTED   False
   max_scf_cycles   250
   geom_opt_max_cycles   1500
   basis2 6-31G*
   scf_algorithm rca_diis
   SYM_IGNORE  TRUE
   print_input   true
   geom_opt_dmax   80
   pop_mulliken false
   XC_GRID 000075000302
$end

$molecule
0 1
C       1.3490663752     -0.0054851266     0.2813795235
C       0.0084709678     0.0032507617     -0.5820314170
H       1.1969937444     -0.9349413029     0.8265324321
H       1.1743922451     0.8927273439     0.8698888355
H       2.1274292802     0.0103322028     -0.4758168707
C       -1.1825240579     0.0042206017     0.2511403811
H       0.1360462393     -0.8674056677     -1.2296722291
H       0.1490766471     0.8775704677     -1.2219937360
H       -1.3755388258     -0.8092803882     0.9590473724
H       -2.1619455109     -0.0252832789     -0.2374309588
H       -1.4214671653     0.8542950525     0.9000016859
$end
--------------------------------------------------------------

             Standard Nuclear Orientation (Angstroms)
    I     Atom           X                Y                Z
 ----------------------------------------------------------------
    1      C       1.3490663752    -0.0054851266     0.2813795235
    2      C       0.0084709678     0.0032507617    -0.5820314170
    3      H       1.1969937444    -0.9349413029     0.8265324321
    4      H       1.1743922451     0.8927273439     0.8698888355
    5      H       2.1274292802     0.0103322028    -0.4758168707
    6      C      -1.1825240579     0.0042206017     0.2511403811
    7      H       0.1360462393    -0.8674056677    -1.2296722291
    8      H       0.1490766471     0.8775704677    -1.2219937360
    9      H      -1.3755388258    -0.8092803882     0.9590473724
   10      H      -2.1619455109    -0.0252832789    -0.2374309588
   11      H      -1.4214671653     0.8542950525     0.9000016859
 ----------------------------------------------------------------

    7    -119.0717465011      5.66E-06 Convergence criterion met
    6    -119.1164437157      5.19E-06 Convergence criterion met
 Total energy in the final basis set = -119.11644372

                    Orbital Energies (a.u.)
 --------------------------------------------------------------

 Alpha MOs
 -- Occupied --
-10.2750 -10.2673 -10.2649  -0.8867  -0.7817  -0.6789  -0.5499  -0.5402
 -0.4724  -0.4630  -0.4500  -0.4051  -0.3781

                    Cartesian Multipole Moments
 -----------------------------------------------------------------
    Charge (ESU x 10^10)
                 0.0000
    Dipole Moment (Debye)
         X      -0.2298      Y       0.0027      Z      -0.1421
       Tot       0.2703
    Quadrupole Moments (Debye-Ang)
        XX     -22.2732     XY      -0.0283     YY     -21.4306
        XZ      -1.5041     YZ       0.0002     ZZ     -22.0752

 Total job time:  28.13s(wall), 76.30s(cpu)
        *  Thank you very much for using Q-Chem.  Have a nice day.  *
