 Q-Chem 5.3 (devel), Q-Chem, Inc., Pleasanton, CA (2020)
 Q-Chem 5.3.0 for Intel X86 EM64T Linux

User input:
--------------------------------------------------------------
$rem
   JOBTYPE  sp
   EXCHANGE   omegaB97X-D
   BASIS   6-311+G(2df,2pd)
   UNRESTRICTED   False
   max_scf_cycles   250
   geom_opt_max_cycles   1500
   basis2 6-31G*
   scf_algorithm rca_diis
   SYM_IGNORE  TRUE
   print_input   true
   geom_opt_dmax   80
   pop_mulliken false
   XC_GRID 000075000302
$end

$molecule
0 1
C       1.2655734887     0.0481988345     0.2605090940
C       -0.0002378541     -0.0000566132     -0.5868848613
H       1.3287064800     -0.9680369877     0.9926153513
H       1.2833142676     0.7914899470     0.8131734690
H       2.1665085147     0.0523754405     -0.3607481211
C       -1.2670161412     -0.0481722677     0.2591150517
H       0.0187433703     -0.8737937698     -1.2426178660
H       -0.0187702185     0.8735598147     -1.2427831124
H       -1.2852167978     -0.7942140693     0.8135219627
H       -2.1612691111     -0.0519806476     -0.3580620679
H       -1.3303360592     0.9706309847     0.9932061190
$end
--------------------------------------------------------------

             Standard Nuclear Orientation (Angstroms)
    I     Atom           X                Y                Z
 ----------------------------------------------------------------
    1      C       1.2655734887     0.0481988345     0.2605090940
    2      C      -0.0002378541    -0.0000566132    -0.5868848613
    3      H       1.3287064800    -0.9680369877     0.9926153513
    4      H       1.2833142676     0.7914899470     0.8131734690
    5      H       2.1665085147     0.0523754405    -0.3607481211
    6      C      -1.2670161412    -0.0481722677     0.2591150517
    7      H       0.0187433703    -0.8737937698    -1.2426178660
    8      H      -0.0187702185     0.8735598147    -1.2427831124
    9      H      -1.2852167978    -0.7942140693     0.8135219627
   10      H      -2.1612691111    -0.0519806476    -0.3580620679
   11      H      -1.3303360592     0.9706309847     0.9932061190
 ----------------------------------------------------------------

    7    -119.0319711913      5.97E-06 Convergence criterion met
    5    -119.0778582497      9.00E-06 Convergence criterion met
 Total energy in the final basis set = -119.07785825

                    Orbital Energies (a.u.)
 --------------------------------------------------------------

 Alpha MOs
 -- Occupied --
-10.2759 -10.2636 -10.2635  -0.8856  -0.7868  -0.6862  -0.5507  -0.5262
 -0.4858  -0.4689  -0.4204  -0.4122  -0.4026

                    Cartesian Multipole Moments
 -----------------------------------------------------------------
    Charge (ESU x 10^10)
                -0.0000
    Dipole Moment (Debye)
         X      -0.0049      Y      -0.0025      Z      -0.1871
       Tot       0.1871
    Quadrupole Moments (Debye-Ang)
        XX     -22.1713     XY       0.6047     YY     -21.3583
        XZ       0.0072     YZ      -0.0014     ZZ     -21.9134

 Total job time:  23.82s(wall), 64.78s(cpu)
        *  Thank you very much for using Q-Chem.  Have a nice day.  *
