 Q-Chem 5.3 (devel), Q-Chem, Inc., Pleasanton, CA (2020)
 Q-Chem 5.3.0 for Intel X86 EM64T Linux

User input:
--------------------------------------------------------------
$rem
   JOBTYPE  sp
   EXCHANGE   omegaB97X-D
   BASIS   6-311+G(2df,2pd)
   UNRESTRICTED   False
   max_scf_cycles   250
   geom_opt_max_cycles   1500
   basis2 6-31G*
   scf_algorithm rca_diis
   SYM_IGNORE  TRUE
   print_input   true
   geom_opt_dmax   80
   pop_mulliken false
   XC_GRID 000075000302
$end

$molecule
0 1
C       1.2672591978     0.0295852700     0.2599738034
C       0.0012144203     -0.0002662928     -0.5869572226
H       1.2944499054     -0.8611179046     0.8911433082
H       1.3162055147     0.9025082603     0.9135831714
H       2.1653057843     0.0011088721     -0.3580670965
C       -1.2672026759     -0.0295496031     0.2584124076
H       -0.0853950431     -0.8703935079     -1.2420405214
H       0.0818271385     0.8698493213     -1.2428208455
H       -1.3166845242     -0.8999478227     0.9155598384
H       -2.1635806985     0.0000319084     -0.3617513287
H       -1.2933990799     0.8581921649     0.8940095047
$end
--------------------------------------------------------------

             Standard Nuclear Orientation (Angstroms)
    I     Atom           X                Y                Z
 ----------------------------------------------------------------
    1      C       1.2672591978     0.0295852700     0.2599738034
    2      C       0.0012144203    -0.0002662928    -0.5869572226
    3      H       1.2944499054    -0.8611179046     0.8911433082
    4      H       1.3162055147     0.9025082603     0.9135831714
    5      H       2.1653057843     0.0011088721    -0.3580670965
    6      C      -1.2672026759    -0.0295496031     0.2584124076
    7      H      -0.0853950431    -0.8703935079    -1.2420405214
    8      H       0.0818271385     0.8698493213    -1.2428208455
    9      H      -1.3166845242    -0.8999478227     0.9155598384
   10      H      -2.1635806985     0.0000319084    -0.3617513287
   11      H      -1.2933990799     0.8581921649     0.8940095047
 ----------------------------------------------------------------

    7    -119.1000345576      4.62E-06 Convergence criterion met
    6    -119.1430588756      3.91E-06 Convergence criterion met
 Total energy in the final basis set = -119.14305888

                    Orbital Energies (a.u.)
 --------------------------------------------------------------

 Alpha MOs
 -- Occupied --
-10.2740 -10.2654 -10.2653  -0.8815  -0.7775  -0.6777  -0.5460  -0.5244
 -0.4842  -0.4643  -0.4226  -0.4167  -0.4011

                    Cartesian Multipole Moments
 -----------------------------------------------------------------
    Charge (ESU x 10^10)
                 0.0000
    Dipole Moment (Debye)
         X       0.0020      Y       0.0002      Z      -0.0811
       Tot       0.0811
    Quadrupole Moments (Debye-Ang)
        XX     -22.1480     XY       0.2382     YY     -21.3815
        XZ       0.0086     YZ      -0.0009     ZZ     -21.8566

 Total job time:  26.23s(wall), 72.10s(cpu)
        *  Thank you very much for using Q-Chem.  Have a nice day.  *
