 Q-Chem 5.3 (devel), Q-Chem, Inc., Pleasanton, CA (2020)
 Q-Chem 5.3.0 for Intel X86 EM64T Linux

User input:
--------------------------------------------------------------
$rem
   JOBTYPE  sp
   EXCHANGE   omegaB97X-D
   BASIS   6-311+G(2df,2pd)
   UNRESTRICTED   False
   max_scf_cycles   250
   geom_opt_max_cycles   1500
   basis2 6-31G*
   scf_algorithm rca_diis
   SYM_IGNORE  TRUE
   print_input   true
   geom_opt_dmax   80
   pop_mulliken false
   XC_GRID 000075000302
$end

$molecule
0 1
C       1.1992570863     0.0061140285     0.2022268389
C       0.1065035741     0.0005100030     -0.5869146383
H       1.2275739719     -0.8688206321     0.8511840917
H       1.2537668100     0.9062424185     0.8138623434
H       2.0727123074     -0.0192342920     -0.4499966022
C       -1.3382362990     -0.0057687777     0.3093468158
H       0.2454164601     -0.8722481433     -1.2293732746
H       0.2356296872     0.8739258815     -1.2305199947
H       -1.3832070441     -0.8917121464     0.9496467225
H       -2.2591753799     0.0171718525     -0.2742863242
H       -1.3602412346     0.8538204735     0.9858690404
$end
--------------------------------------------------------------

             Standard Nuclear Orientation (Angstroms)
    I     Atom           X                Y                Z
 ----------------------------------------------------------------
    1      C       1.1992570863     0.0061140285     0.2022268389
    2      C       0.1065035741     0.0005100030    -0.5869146383
    3      H       1.2275739719    -0.8688206321     0.8511840917
    4      H       1.2537668100     0.9062424185     0.8138623434
    5      H       2.0727123074    -0.0192342920    -0.4499966022
    6      C      -1.3382362990    -0.0057687777     0.3093468158
    7      H       0.2454164601    -0.8722481433    -1.2293732746
    8      H       0.2356296872     0.8739258815    -1.2305199947
    9      H      -1.3832070441    -0.8917121464     0.9496467225
   10      H      -2.2591753799     0.0171718525    -0.2742863242
   11      H      -1.3602412346     0.8538204735     0.9858690404
 ----------------------------------------------------------------

    7    -119.0600020559      5.79E-06 Convergence criterion met
    6    -119.1047370658      4.94E-06 Convergence criterion met
 Total energy in the final basis set = -119.10473707

                    Orbital Energies (a.u.)
 --------------------------------------------------------------

 Alpha MOs
 -- Occupied --
-10.2769 -10.2725 -10.2515  -0.9037  -0.7751  -0.6709  -0.5582  -0.5340
 -0.4805  -0.4642  -0.4422  -0.3991  -0.3896

                    Cartesian Multipole Moments
 -----------------------------------------------------------------
    Charge (ESU x 10^10)
                -0.0000
    Dipole Moment (Debye)
         X       0.1253      Y      -0.0006      Z      -0.0763
       Tot       0.1466
    Quadrupole Moments (Debye-Ang)
        XX     -22.0328     XY       0.0020     YY     -21.3460
        XZ      -0.8321     YZ      -0.0048     ZZ     -21.9187

 Total job time:  27.19s(wall), 74.17s(cpu)
        *  Thank you very much for using Q-Chem.  Have a nice day.  *
