 Q-Chem 5.3 (devel), Q-Chem, Inc., Pleasanton, CA (2020)
 Q-Chem 5.3.0 for Intel X86 EM64T Linux

User input:
--------------------------------------------------------------
$rem
   JOBTYPE  sp
   EXCHANGE   omegaB97X-D
   BASIS   6-311+G(2df,2pd)
   UNRESTRICTED   False
   max_scf_cycles   250
   geom_opt_max_cycles   1500
   basis2 6-31G*
   scf_algorithm rca_diis
   SYM_IGNORE  TRUE
   print_input   true
   geom_opt_dmax   80
   pop_mulliken false
   XC_GRID 000075000302
$end

$molecule
0 1
C       1.0634382543     0.0065362511     0.2620079325
C       0.0000000670     -0.0168047079     -0.8024401579
H       0.9152101882     -0.8827849217     0.8795960517
H       0.8521711383     0.8664018768     0.9021540160
H       2.1101725517     0.0445640599     -0.0328447472
C       -1.0634379315     0.0065365093     0.2620081437
H       -0.0000005901     -0.9116727663     -1.4256571757
H       0.0000002247     0.8590424902     -1.4526844081
H       -0.9152098890     -0.8827847087     0.8795961700
H       -2.1101722536     0.0445641321     -0.0328450154
H       -0.8521718205     0.8664024514     0.9021542093
$end
--------------------------------------------------------------

             Standard Nuclear Orientation (Angstroms)
    I     Atom           X                Y                Z
 ----------------------------------------------------------------
    1      C       1.0634382543     0.0065362511     0.2620079325
    2      C       0.0000000670    -0.0168047079    -0.8024401579
    3      H       0.9152101882    -0.8827849217     0.8795960517
    4      H       0.8521711383     0.8664018768     0.9021540160
    5      H       2.1101725517     0.0445640599    -0.0328447472
    6      C      -1.0634379315     0.0065365093     0.2620081437
    7      H      -0.0000005901    -0.9116727663    -1.4256571757
    8      H       0.0000002247     0.8590424902    -1.4526844081
    9      H      -0.9152098890    -0.8827847087     0.8795961700
   10      H      -2.1101722536     0.0445641321    -0.0328450154
   11      H      -0.8521718205     0.8664024514     0.9021542093
 ----------------------------------------------------------------

    7    -119.0648344357      3.66E-06 Convergence criterion met
    5    -119.1095697234      6.75E-06 Convergence criterion met
 Total energy in the final basis set = -119.10956972

                    Orbital Energies (a.u.)
 --------------------------------------------------------------

 Alpha MOs
 -- Occupied --
-10.2734 -10.2622 -10.2622  -0.9110  -0.7522  -0.6932  -0.5672  -0.5434
 -0.4528  -0.4488  -0.4354  -0.4259  -0.3914

                    Cartesian Multipole Moments
 -----------------------------------------------------------------
    Charge (ESU x 10^10)
                -0.0000
    Dipole Moment (Debye)
         X      -0.0000      Y      -0.0096      Z      -0.0033
       Tot       0.0102
    Quadrupole Moments (Debye-Ang)
        XX     -23.0570     XY      -0.0000     YY     -21.1246
        XZ       0.0000     YZ       0.0241     ZZ     -21.6288

 Total job time:  25.54s(wall), 69.19s(cpu)
        *  Thank you very much for using Q-Chem.  Have a nice day.  *
