 Q-Chem 5.3 (devel), Q-Chem, Inc., Pleasanton, CA (2020)
 Q-Chem 5.3.0 for Intel X86 EM64T Linux

User input:
--------------------------------------------------------------
$rem
   JOBTYPE  sp
   EXCHANGE   omegaB97X-D
   BASIS   6-311+G(2df,2pd)
   UNRESTRICTED   False
   max_scf_cycles   250
   geom_opt_max_cycles   1500
   basis2 6-31G*
   scf_algorithm rca_diis
   SYM_IGNORE  TRUE
   print_input   true
   geom_opt_dmax   80
   pop_mulliken false
   XC_GRID 000075000302
$end

$molecule
0 1
C       1.2579574043     -0.0244934910     0.2367892193
C       0.0000003620     -0.0039263569     -0.6587703429
H       1.2141201419     -0.9362073871     0.8288702519
H       1.4259051108     0.9249403024     0.7497472838
H       2.1924322765     0.0304058796     -0.3317174260
C       -1.2579566794     -0.0244965131     0.2367895767
H       0.0000018798     -1.0243716515     -1.0216430787
H       -0.0000020931     1.0390018508     -0.9459182308
H       -1.2141106112     -0.9362116884     0.8288669856
H       -2.1924324912     0.0304225202     -0.3317140096
H       -1.4259153611     0.9249372010     0.7497447895
$end
--------------------------------------------------------------

             Standard Nuclear Orientation (Angstroms)
    I     Atom           X                Y                Z
 ----------------------------------------------------------------
    1      C       1.2579574043    -0.0244934910     0.2367892193
    2      C       0.0000003620    -0.0039263569    -0.6587703429
    3      H       1.2141201419    -0.9362073871     0.8288702519
    4      H       1.4259051108     0.9249403024     0.7497472838
    5      H       2.1924322765     0.0304058796    -0.3317174260
    6      C      -1.2579566794    -0.0244965131     0.2367895767
    7      H       0.0000018798    -1.0243716515    -1.0216430787
    8      H      -0.0000020931     1.0390018508    -0.9459182308
    9      H      -1.2141106112    -0.9362116884     0.8288669856
   10      H      -2.1924324912     0.0304225202    -0.3317140096
   11      H      -1.4259153611     0.9249372010     0.7497447895
 ----------------------------------------------------------------

    7    -119.0515649414      8.11E-06 Convergence criterion met
    5    -119.0967502124      8.63E-06 Convergence criterion met
 Total energy in the final basis set = -119.09675021

                    Orbital Energies (a.u.)
 --------------------------------------------------------------

 Alpha MOs
 -- Occupied --
-10.2781 -10.2646 -10.2646  -0.8870  -0.7775  -0.6701  -0.5895  -0.5090
 -0.4876  -0.4598  -0.4308  -0.4097  -0.3723

                    Cartesian Multipole Moments
 -----------------------------------------------------------------
    Charge (ESU x 10^10)
                -0.0000
    Dipole Moment (Debye)
         X      -0.0000      Y       0.1109      Z      -0.0005
       Tot       0.1109
    Quadrupole Moments (Debye-Ang)
        XX     -22.2185     XY      -0.0001     YY     -20.1413
        XZ      -0.0000     YZ      -0.1757     ZZ     -23.7950

 Total job time:  25.72s(wall), 68.71s(cpu)
        *  Thank you very much for using Q-Chem.  Have a nice day.  *
