 Q-Chem 5.3 (devel), Q-Chem, Inc., Pleasanton, CA (2020)
 Q-Chem 5.3.0 for Intel X86 EM64T Linux

User input:
--------------------------------------------------------------
$rem
   JOBTYPE  sp
   EXCHANGE   omegaB97X-D
   BASIS   6-311+G(2df,2pd)
   UNRESTRICTED   False
   max_scf_cycles   250
   geom_opt_max_cycles   1500
   basis2 6-31G*
   scf_algorithm rca_diis
   SYM_IGNORE  TRUE
   print_input   true
   geom_opt_dmax   80
   pop_mulliken false
   XC_GRID 000075000302
$end

$molecule
0 1
C       1.2673408287     -0.0160679527     0.2593039910
C       0.0000787234     -0.0000067423     -0.5871722169
H       1.2982122255     -0.8517444979     0.8738923882
H       1.3132906792     0.9105693785     0.9337579931
H       2.1636602089     -0.0173810570     -0.3594791023
C       -1.2668653518     0.0160701189     0.2597649169
H       -0.0062497179     -0.8738636049     -1.2429837982
H       0.0062608596     0.8738385620     -1.2430034032
H       -1.3127128691     -0.9096863317     0.9335906337
H       -2.1654114584     0.0174248570     -0.3603798579
H       -1.2976041888     0.8508479362     0.8737534745
$end
--------------------------------------------------------------

             Standard Nuclear Orientation (Angstroms)
    I     Atom           X                Y                Z
 ----------------------------------------------------------------
    1      C       1.2673408287    -0.0160679527     0.2593039910
    2      C       0.0000787234    -0.0000067423    -0.5871722169
    3      H       1.2982122255    -0.8517444979     0.8738923882
    4      H       1.3132906792     0.9105693785     0.9337579931
    5      H       2.1636602089    -0.0173810570    -0.3594791023
    6      C      -1.2668653518     0.0160701189     0.2597649169
    7      H      -0.0062497179    -0.8738636049    -1.2429837982
    8      H       0.0062608596     0.8738385620    -1.2430034032
    9      H      -1.3127128691    -0.9096863317     0.9335906337
   10      H      -2.1654114584     0.0174248570    -0.3603798579
   11      H      -1.2976041888     0.8508479362     0.8737534745
 ----------------------------------------------------------------

    7    -119.0957343384      4.70E-06 Convergence criterion met
    5    -119.1389477254      9.97E-06 Convergence criterion met
 Total energy in the final basis set = -119.13894773

                    Orbital Energies (a.u.)
 --------------------------------------------------------------

 Alpha MOs
 -- Occupied --
-10.2745 -10.2648 -10.2647  -0.8817  -0.7782  -0.6787  -0.5463  -0.5244
 -0.4830  -0.4642  -0.4189  -0.4171  -0.4070

                    Cartesian Multipole Moments
 -----------------------------------------------------------------
    Charge (ESU x 10^10)
                 0.0000
    Dipole Moment (Debye)
         X       0.0017      Y      -0.0003      Z      -0.0969
       Tot       0.0969
    Quadrupole Moments (Debye-Ang)
        XX     -22.1680     XY      -0.2046     YY     -21.3627
        XZ      -0.0024     YZ      -0.0001     ZZ     -21.8509

 Total job time:  23.75s(wall), 65.00s(cpu)
        *  Thank you very much for using Q-Chem.  Have a nice day.  *
