 Q-Chem 5.3 (devel), Q-Chem, Inc., Pleasanton, CA (2020)
 Q-Chem 5.3.0 for Intel X86 EM64T Linux

User input:
--------------------------------------------------------------
$rem
   JOBTYPE  sp
   EXCHANGE   omegaB97X-D
   BASIS   6-311+G(2df,2pd)
   UNRESTRICTED   False
   max_scf_cycles   250
   geom_opt_max_cycles   1500
   basis2 6-31G*
   scf_algorithm rca_diis
   SYM_IGNORE  TRUE
   print_input   true
   geom_opt_dmax   80
   pop_mulliken false
   XC_GRID 000075000302
$end

$molecule
0 1
C       1.2797989899     -0.0103958828     0.1939572284
C       0.0000000507     -0.1164118117     -0.6432942881
H       1.3071837440     -0.8094189003     0.9385893381
H       1.2380963559     0.6575183365     1.0653978335
H       2.0253119598     0.4308739732     -0.4585133156
C       -1.2797982181     -0.0103941882     0.1939583701
H       -0.0000010160     -1.1050635182     -1.1086412641
H       0.0000005100     0.6843181483     -1.3858796374
H       -1.3071849663     -0.8094166507     0.9385911675
H       -2.0253146271     0.4308658470     -0.4585150856
H       -1.2380928434     0.6575253129     1.0653946720
$end
--------------------------------------------------------------

             Standard Nuclear Orientation (Angstroms)
    I     Atom           X                Y                Z
 ----------------------------------------------------------------
    1      C       1.2797989899    -0.0103958828     0.1939572284
    2      C       0.0000000507    -0.1164118117    -0.6432942881
    3      H       1.3071837440    -0.8094189003     0.9385893381
    4      H       1.2380963559     0.6575183365     1.0653978335
    5      H       2.0253119598     0.4308739732    -0.4585133156
    6      C      -1.2797982181    -0.0103941882     0.1939583701
    7      H      -0.0000010160    -1.1050635182    -1.1086412641
    8      H       0.0000005100     0.6843181483    -1.3858796374
    9      H      -1.3071849663    -0.8094166507     0.9385911675
   10      H      -2.0253146271     0.4308658470    -0.4585150856
   11      H      -1.2380928434     0.6575253129     1.0653946720
 ----------------------------------------------------------------

    7    -119.0427172189      6.38E-06 Convergence criterion met
    6    -119.0888078172      4.47E-06 Convergence criterion met
 Total energy in the final basis set = -119.08880782

                    Orbital Energies (a.u.)
 --------------------------------------------------------------

 Alpha MOs
 -- Occupied --
-10.2757 -10.2658 -10.2658  -0.8825  -0.7813  -0.6869  -0.5603  -0.5291
 -0.4991  -0.4501  -0.4362  -0.3891  -0.3734

                    Cartesian Multipole Moments
 -----------------------------------------------------------------
    Charge (ESU x 10^10)
                 0.0000
    Dipole Moment (Debye)
         X      -0.0000      Y       0.2292      Z       0.2048
       Tot       0.3074
    Quadrupole Moments (Debye-Ang)
        XX     -23.5098     XY       0.0000     YY     -22.1819
        XZ       0.0000     YZ      -0.9490     ZZ     -20.5694

 Total job time:  27.99s(wall), 75.95s(cpu)
        *  Thank you very much for using Q-Chem.  Have a nice day.  *
