 Q-Chem 5.2 (devel), Q-Chem, Inc., Pleasanton, CA (2019)
 Q-Chem 5.2.2 for Intel X86 EM64T Linux

User input:
--------------------------------------------------------------
$rem
   JOBTYPE  sp
   EXCHANGE   omegaB97X-D
   BASIS   6-311+G(2df,2pd)
   max_scf_cycles   250
   geom_opt_max_cycles   1500
   basis2 6-31G*
   scf_algorithm rca_diis
   SYM_IGNORE  TRUE
   print_input   true
   geom_opt_dmax   80
   pop_mulliken false
   XC_GRID 000075000302
$end

$molecule
0 1
C       1.2356940943     -0.1105022575     0.3060770180
C       -0.0139706648     0.0009220343     -0.5782024581
H       1.5026852891     -0.8418440464     1.0658639891
H       1.1718808924     0.8894557920     0.7467779817
H       2.0687599045     0.0255135705     -0.3863503852
C       -1.2883062018     0.1071240156     0.2307730335
H       -0.2436905765     -0.8384879801     -1.2387900505
H       0.3253732555     0.8210823478     -1.2153353276
H       -1.1108221580     -0.8652064420     0.7040956296
H       -2.2157207486     -0.0181050890     -0.3264640619
H       -1.4318831468     0.8300487208     1.0325996503
--------------------------------------------------------------

             Standard Nuclear Orientation (Angstroms)
    I     Atom           X                Y                Z
 ----------------------------------------------------------------
    1      C       1.2356940943    -0.1105022575     0.3060770180
    2      C      -0.0139706648     0.0009220343    -0.5782024581
    3      H       1.5026852891    -0.8418440464     1.0658639891
    4      H       1.1718808924     0.8894557920     0.7467779817
    5      H       2.0687599045     0.0255135705    -0.3863503852
    6      C      -1.2883062018     0.1071240156     0.2307730335
    7      H      -0.2436905765    -0.8384879801    -1.2387900505
    8      H       0.3253732555     0.8210823478    -1.2153353276
    9      H      -1.1108221580    -0.8652064420     0.7040956296
   10      H      -2.2157207486    -0.0181050890    -0.3264640619
   11      H      -1.4318831468     0.8300487208     1.0325996503
 ----------------------------------------------------------------

    7    -119.0686037683      5.14E-06 Convergence criterion met
    6    -119.1127385006      4.23E-06 Convergence criterion met
 Total energy in the final basis set = -119.11273850

                    Orbital Energies (a.u.)
 --------------------------------------------------------------

 Alpha MOs
 -- Occupied --
-10.2808 -10.2671 -10.2653  -0.8899  -0.7829  -0.6770  -0.5569  -0.5294
 -0.4783  -0.4684  -0.4178  -0.4063  -0.3992

                    Cartesian Multipole Moments
 -----------------------------------------------------------------
    Charge (ESU x 10^10)
                 0.0000
    Dipole Moment (Debye)
         X       0.0434      Y      -0.0279      Z      -0.0515
       Tot       0.0729
    Quadrupole Moments (Debye-Ang)
        XX     -21.9898     XY       0.1366     YY     -21.6836
        XZ       0.0654     YZ       0.0251     ZZ     -21.8888

 Total job time:  49.28s(wall), 137.89s(cpu)
        *  Thank you very much for using Q-Chem.  Have a nice day.  *
