 Q-Chem 5.2 (devel), Q-Chem, Inc., Pleasanton, CA (2019)
 Q-Chem 5.2.2 for Intel X86 EM64T Linux

User input:
--------------------------------------------------------------
$rem
   JOBTYPE  sp
   EXCHANGE   omegaB97X-D
   BASIS   6-311+G(2df,2pd)
   max_scf_cycles   250
   geom_opt_max_cycles   1500
   basis2 6-31G*
   scf_algorithm rca_diis
   SYM_IGNORE  TRUE
   print_input   true
   geom_opt_dmax   80
   pop_mulliken false
   XC_GRID 000075000302
$end

$molecule
0 1
C       1.3441055769     -0.0292919184     0.1344234358
C       0.0549000783     -0.0008113478     -0.5903497466
H       1.2316429679     -0.8404347119     0.8567878023
H       1.1380460000     0.8508373898     0.7507862508
H       2.3733020383     -0.0049548775     -0.2163730717
C       -1.1817254643     0.0337150796     0.3744640909
H       -0.2154292698     -0.8550575433     -1.2156032271
H       -0.0597508717     0.8723058590     -1.2370941150
H       -1.3454919375     -0.8941380981     0.9260151288
H       -1.8865217281     -0.0018368228     -0.4606187303
H       -1.4530774507     0.8696676575     1.0186072010
--------------------------------------------------------------

             Standard Nuclear Orientation (Angstroms)
    I     Atom           X                Y                Z
 ----------------------------------------------------------------
    1      C       1.3441055769    -0.0292919184     0.1344234358
    2      C       0.0549000783    -0.0008113478    -0.5903497466
    3      H       1.2316429679    -0.8404347119     0.8567878023
    4      H       1.1380460000     0.8508373898     0.7507862508
    5      H       2.3733020383    -0.0049548775    -0.2163730717
    6      C      -1.1817254643     0.0337150796     0.3744640909
    7      H      -0.2154292698    -0.8550575433    -1.2156032271
    8      H      -0.0597508717     0.8723058590    -1.2370941150
    9      H      -1.3454919375    -0.8941380981     0.9260151288
   10      H      -1.8865217281    -0.0018368228    -0.4606187303
   11      H      -1.4530774507     0.8696676575     1.0186072010
 ----------------------------------------------------------------

    7    -119.0683065008      4.99E-06 Convergence criterion met
    6    -119.1124785767      4.39E-06 Convergence criterion met
 Total energy in the final basis set = -119.11247858

                    Orbital Energies (a.u.)
 --------------------------------------------------------------

 Alpha MOs
 -- Occupied --
-10.2812 -10.2685 -10.2623  -0.8898  -0.7816  -0.6790  -0.5492  -0.5350
 -0.4874  -0.4617  -0.4163  -0.4045  -0.4008

                    Cartesian Multipole Moments
 -----------------------------------------------------------------
    Charge (ESU x 10^10)
                -0.0000
    Dipole Moment (Debye)
         X      -0.1067      Y       0.0244      Z      -0.0737
       Tot       0.1320
    Quadrupole Moments (Debye-Ang)
        XX     -22.0316     XY      -0.0114     YY     -21.5651
        XZ      -0.0954     YZ      -0.0412     ZZ     -21.9754

 Total job time:  49.43s(wall), 138.14s(cpu)
        *  Thank you very much for using Q-Chem.  Have a nice day.  *
