 Q-Chem 5.3 (devel), Q-Chem, Inc., Pleasanton, CA (2020)
 Q-Chem 5.3.0 for Intel X86 EM64T Linux

User input:
--------------------------------------------------------------
$rem
   JOBTYPE  sp
   EXCHANGE   omegaB97X-D
   BASIS   6-311+G(2df,2pd)
   UNRESTRICTED   False
   max_scf_cycles   250
   geom_opt_max_cycles   1500
   basis2 6-31G*
   scf_algorithm rca_diis
   SYM_IGNORE  TRUE
   print_input   true
   geom_opt_dmax   80
   pop_mulliken false
   XC_GRID 000075000302
$end

$molecule
0 1
C       1.2754730826     0.0315869879     0.1921812385
C       -0.0000000671     -0.0307625811     -0.5415631289
H       1.1645163605     -0.8489545505     0.8336004193
H       1.1925365823     0.8653610575     0.8928524750
H       2.2553378940     -0.0111162376     -0.2750562059
C       -1.2754730184     0.0315870074     0.1921811380
H       0.0000003040     -0.8900561515     -1.2135913639
H       -0.0000002293     0.8470640177     -1.1909562374
H       -1.1645164820     -0.8489544978     0.8336003991
H       -2.2553380425     -0.0111155673     -0.2750560100
H       -1.1925364447     0.8653611813     0.8928522951
$end
--------------------------------------------------------------

             Standard Nuclear Orientation (Angstroms)
    I     Atom           X                Y                Z
 ----------------------------------------------------------------
    1      C       1.2754730826     0.0315869879     0.1921812385
    2      C      -0.0000000671    -0.0307625811    -0.5415631289
    3      H       1.1645163605    -0.8489545505     0.8336004193
    4      H       1.1925365823     0.8653610575     0.8928524750
    5      H       2.2553378940    -0.0111162376    -0.2750562059
    6      C      -1.2754730184     0.0315870074     0.1921811380
    7      H       0.0000003040    -0.8900561515    -1.2135913639
    8      H      -0.0000002293     0.8470640177    -1.1909562374
    9      H      -1.1645164820    -0.8489544978     0.8336003991
   10      H      -2.2553380425    -0.0111155673    -0.2750560100
   11      H      -1.1925364447     0.8653611813     0.8928522951
 ----------------------------------------------------------------

    7    -119.0769179574      4.77E-06 Convergence criterion met
    6    -119.1214072523      4.17E-06 Convergence criterion met
 Total energy in the final basis set = -119.12140725

                    Orbital Energies (a.u.)
 --------------------------------------------------------------

 Alpha MOs
 -- Occupied --
-10.2668 -10.2654 -10.2654  -0.9004  -0.7859  -0.6743  -0.5570  -0.5453
 -0.4778  -0.4633  -0.4532  -0.4053  -0.3795

                    Cartesian Multipole Moments
 -----------------------------------------------------------------
    Charge (ESU x 10^10)
                 0.0000
    Dipole Moment (Debye)
         X      -0.0000      Y      -0.0320      Z      -0.0457
       Tot       0.0558
    Quadrupole Moments (Debye-Ang)
        XX     -21.1641     XY      -0.0000     YY     -21.6968
        XZ      -0.0000     YZ       0.3511     ZZ     -22.6114

 Total job time:  27.86s(wall), 75.67s(cpu)
        *  Thank you very much for using Q-Chem.  Have a nice day.  *
