 Q-Chem 5.3 (devel), Q-Chem, Inc., Pleasanton, CA (2020)
 Q-Chem 5.3.0 for Intel X86 EM64T Linux

User input:
--------------------------------------------------------------
$rem
   JOBTYPE  sp
   EXCHANGE   omegaB97X-D
   BASIS   6-311+G(2df,2pd)
   UNRESTRICTED   False
   max_scf_cycles   250
   geom_opt_max_cycles   1500
   basis2 6-31G*
   scf_algorithm rca_diis
   SYM_IGNORE  TRUE
   print_input   true
   geom_opt_dmax   80
   pop_mulliken false
   XC_GRID 000075000302
$end

$molecule
0 1
C       1.2672773342     -0.0321277523     0.2591762304
C       0.0001578572     -0.0000262914     -0.5870644761
H       1.2915257845     -0.8229274069     0.8437905235
H       1.3216461393     0.9405597001     0.9635512394
H       2.1625440502     -0.0347111087     -0.3588344388
C       -1.2663223465     0.0321376261     0.2601008894
H       -0.0124979756     -0.8738363468     -1.2428453212
H       0.0125186491     0.8737347463     -1.2429218748
H       -1.3205239943     -0.9388103940     0.9631866898
H       -2.1660429796     0.0348852691     -0.3606319115
H       -1.2902825791     0.8211226246     0.8435374688
$end
--------------------------------------------------------------

             Standard Nuclear Orientation (Angstroms)
    I     Atom           X                Y                Z
 ----------------------------------------------------------------
    1      C       1.2672773342    -0.0321277523     0.2591762304
    2      C       0.0001578572    -0.0000262914    -0.5870644761
    3      H       1.2915257845    -0.8229274069     0.8437905235
    4      H       1.3216461393     0.9405597001     0.9635512394
    5      H       2.1625440502    -0.0347111087    -0.3588344388
    6      C      -1.2663223465     0.0321376261     0.2601008894
    7      H      -0.0124979756    -0.8738363468    -1.2428453212
    8      H       0.0125186491     0.8737347463    -1.2429218748
    9      H      -1.3205239943    -0.9388103940     0.9631866898
   10      H      -2.1660429796     0.0348852691    -0.3606319115
   11      H      -1.2902825791     0.8211226246     0.8435374688
 ----------------------------------------------------------------

    7    -119.0727434759      5.23E-06 Convergence criterion met
    5    -119.1169010298      9.61E-06 Convergence criterion met
 Total energy in the final basis set = -119.11690103

                    Orbital Energies (a.u.)
 --------------------------------------------------------------

 Alpha MOs
 -- Occupied --
-10.2751 -10.2643 -10.2642  -0.8832  -0.7815  -0.6816  -0.5480  -0.5251
 -0.4841  -0.4661  -0.4195  -0.4151  -0.4053

                    Cartesian Multipole Moments
 -----------------------------------------------------------------
    Charge (ESU x 10^10)
                 0.0000
    Dipole Moment (Debye)
         X       0.0033      Y      -0.0011      Z      -0.1309
       Tot       0.1310
    Quadrupole Moments (Debye-Ang)
        XX     -22.1697     XY      -0.4069     YY     -21.3610
        XZ      -0.0048     YZ      -0.0006     ZZ     -21.8749

 Total job time:  24.48s(wall), 66.43s(cpu)
        *  Thank you very much for using Q-Chem.  Have a nice day.  *
