 Q-Chem 5.3 (devel), Q-Chem, Inc., Pleasanton, CA (2020)
 Q-Chem 5.3.0 for Intel X86 EM64T Linux

User input:
--------------------------------------------------------------
$rem
   JOBTYPE  sp
   EXCHANGE   omegaB97X-D
   BASIS   6-311+G(2df,2pd)
   UNRESTRICTED   False
   max_scf_cycles   250
   geom_opt_max_cycles   1500
   basis2 6-31G*
   scf_algorithm rca_diis
   SYM_IGNORE  TRUE
   print_input   true
   geom_opt_dmax   80
   pop_mulliken false
   XC_GRID 000075000302
$end

$molecule
0 1
C       1.3013519028     -0.0010839866     0.3381473433
C       0.0000007175     0.0005607143     -0.5369589776
H       1.1371747333     -0.9302339431     0.8795409124
H       1.1461836726     0.9320609688     0.8754462825
H       2.0442562941     -0.0038517459     -0.4544587246
C       -1.3013504706     -0.0010836725     0.3381469558
H       -0.0000001378     -0.8683816417     -1.2026863614
H       0.0000008125     0.8740379819     -1.1966618223
H       -1.1371758505     -0.9302333499     0.8795418269
H       -2.0442573650     -0.0038531571     -0.4544570009
H       -1.1461843695     0.9320624978     0.8754445847
$end
--------------------------------------------------------------

             Standard Nuclear Orientation (Angstroms)
    I     Atom           X                Y                Z
 ----------------------------------------------------------------
    1      C       1.3013519028    -0.0010839866     0.3381473433
    2      C       0.0000007175     0.0005607143    -0.5369589776
    3      H       1.1371747333    -0.9302339431     0.8795409124
    4      H       1.1461836726     0.9320609688     0.8754462825
    5      H       2.0442562941    -0.0038517459    -0.4544587246
    6      C      -1.3013504706    -0.0010836725     0.3381469558
    7      H      -0.0000001378    -0.8683816417    -1.2026863614
    8      H       0.0000008125     0.8740379819    -1.1966618223
    9      H      -1.1371758505    -0.9302333499     0.8795418269
   10      H      -2.0442573650    -0.0038531571    -0.4544570009
   11      H      -1.1461843695     0.9320624978     0.8754445847
 ----------------------------------------------------------------

    7    -119.0684414365      6.03E-06 Convergence criterion met
    6    -119.1126851327      4.21E-06 Convergence criterion met
 Total energy in the final basis set = -119.11268513

                    Orbital Energies (a.u.)
 --------------------------------------------------------------

 Alpha MOs
 -- Occupied --
-10.2724 -10.2686 -10.2686  -0.8830  -0.7771  -0.6636  -0.5598  -0.5286
 -0.4875  -0.4805  -0.4130  -0.4045  -0.3894

                    Cartesian Multipole Moments
 -----------------------------------------------------------------
    Charge (ESU x 10^10)
                 0.0000
    Dipole Moment (Debye)
         X      -0.0000      Y       0.0038      Z      -0.3461
       Tot       0.3462
    Quadrupole Moments (Debye-Ang)
        XX     -23.9349     XY       0.0000     YY     -20.9123
        XZ      -0.0000     YZ       0.0054     ZZ     -22.2344

 Total job time:  27.77s(wall), 75.22s(cpu)
        *  Thank you very much for using Q-Chem.  Have a nice day.  *
