 Q-Chem 5.3 (devel), Q-Chem, Inc., Pleasanton, CA (2020)
 Q-Chem 5.3.0 for Intel X86 EM64T Linux

User input:
--------------------------------------------------------------
$rem
   JOBTYPE  sp
   EXCHANGE   omegaB97X-D
   BASIS   6-311+G(2df,2pd)
   UNRESTRICTED   False
   max_scf_cycles   250
   geom_opt_max_cycles   1500
   basis2 6-31G*
   scf_algorithm rca_diis
   SYM_IGNORE  TRUE
   print_input   true
   geom_opt_dmax   80
   pop_mulliken false
   XC_GRID 000075000302
$end

$molecule
0 1
C       1.2596976086     -0.0000651828     0.2544972303
C       -0.0062732545     -0.0000034109     -0.5872244962
H       1.3027254855     -0.9170387932     0.9265741572
H       1.3024616060     0.9165484517     0.9271145976
H       2.1888851443     0.0002598192     -0.3866274113
C       -1.2746949907     0.0000702420     0.2644796721
H       -0.0080817017     -0.8738813582     -1.2430386879
H       -0.0079858770     0.8738657193     -1.2430508380
H       -1.3080780238     -0.8442174475     0.8811051860
H       -2.1403348670     -0.0002386377     -0.3333719410
H       -1.3083211903     0.8447012640     0.8805875501
$end
--------------------------------------------------------------

             Standard Nuclear Orientation (Angstroms)
    I     Atom           X                Y                Z
 ----------------------------------------------------------------
    1      C       1.2596976086    -0.0000651828     0.2544972303
    2      C      -0.0062732545    -0.0000034109    -0.5872244962
    3      H       1.3027254855    -0.9170387932     0.9265741572
    4      H       1.3024616060     0.9165484517     0.9271145976
    5      H       2.1888851443     0.0002598192    -0.3866274113
    6      C      -1.2746949907     0.0000702420     0.2644796721
    7      H      -0.0080817017    -0.8738813582    -1.2430386879
    8      H      -0.0079858770     0.8738657193    -1.2430508380
    9      H      -1.3080780238    -0.8442174475     0.8811051860
   10      H      -2.1403348670    -0.0002386377    -0.3333719410
   11      H      -1.3083211903     0.8447012640     0.8805875501
 ----------------------------------------------------------------

    7    -119.0959440240      4.62E-06 Convergence criterion met
    6    -119.1391242519      4.12E-06 Convergence criterion met
 Total energy in the final basis set = -119.13912425

                    Orbital Energies (a.u.)
 --------------------------------------------------------------

 Alpha MOs
 -- Occupied --
-10.2786 -10.2741 -10.2510  -0.8818  -0.7781  -0.6771  -0.5464  -0.5249
 -0.4825  -0.4641  -0.4219  -0.4143  -0.4069

                    Cartesian Multipole Moments
 -----------------------------------------------------------------
    Charge (ESU x 10^10)
                 0.0000
    Dipole Moment (Debye)
         X      -0.0977      Y       0.0000      Z      -0.0891
       Tot       0.1322
    Quadrupole Moments (Debye-Ang)
        XX     -22.1646     XY       0.0001     YY     -21.3610
        XZ      -0.0983     YZ      -0.0000     ZZ     -21.8369

 Total job time:  27.03s(wall), 73.40s(cpu)
        *  Thank you very much for using Q-Chem.  Have a nice day.  *
