 Q-Chem 5.3 (devel), Q-Chem, Inc., Pleasanton, CA (2020)
 Q-Chem 5.3.0 for Intel X86 EM64T Linux

User input:
--------------------------------------------------------------
$rem
   JOBTYPE  sp
   EXCHANGE   omegaB97X-D
   BASIS   6-311+G(2df,2pd)
   UNRESTRICTED   False
   max_scf_cycles   250
   geom_opt_max_cycles   1500
   basis2 6-31G*
   scf_algorithm rca_diis
   SYM_IGNORE  TRUE
   print_input   true
   geom_opt_dmax   80
   pop_mulliken false
   XC_GRID 000075000302
$end

$molecule
0 1
C       1.3556331840     -0.0716573777     0.1046709758
C       0.0672714446     0.0169978069     -0.5934759659
H       1.2676832551     -0.9860164217     0.6951648627
H       1.0513638886     0.7066666462     0.8116567547
H       2.3972200640     0.0948341092     -0.1574737170
C       -1.1497662936     0.0945083357     0.4112051031
H       -0.3019630761     -0.8158790941     -1.1965833163
H       -0.0451288266     0.9086945737     -1.2147647880
H       -1.2578561609     -0.7513433068     1.0929173310
H       -1.7657482999     -0.1762379761     -0.4514595367
H       -1.6187092399     0.9794333707     0.8391873156
$end
--------------------------------------------------------------

             Standard Nuclear Orientation (Angstroms)
    I     Atom           X                Y                Z
 ----------------------------------------------------------------
    1      C       1.3556331840    -0.0716573777     0.1046709758
    2      C       0.0672714446     0.0169978069    -0.5934759659
    3      H       1.2676832551    -0.9860164217     0.6951648627
    4      H       1.0513638886     0.7066666462     0.8116567547
    5      H       2.3972200640     0.0948341092    -0.1574737170
    6      C      -1.1497662936     0.0945083357     0.4112051031
    7      H      -0.3019630761    -0.8158790941    -1.1965833163
    8      H      -0.0451288266     0.9086945737    -1.2147647880
    9      H      -1.2578561609    -0.7513433068     1.0929173310
   10      H      -1.7657482999    -0.1762379761    -0.4514595367
   11      H      -1.6187092399     0.9794333707     0.8391873156
 ----------------------------------------------------------------

    7    -119.0418442058      5.68E-06 Convergence criterion met
    6    -119.0871886513      4.59E-06 Convergence criterion met
 Total energy in the final basis set = -119.08718865

                    Orbital Energies (a.u.)
 --------------------------------------------------------------

 Alpha MOs
 -- Occupied --
-10.2862 -10.2668 -10.2619  -0.8962  -0.7843  -0.6789  -0.5548  -0.5405
 -0.4857  -0.4665  -0.4160  -0.3972  -0.3903

                    Cartesian Multipole Moments
 -----------------------------------------------------------------
    Charge (ESU x 10^10)
                -0.0000
    Dipole Moment (Debye)
         X      -0.1112      Y       0.0390      Z      -0.1131
       Tot       0.1634
    Quadrupole Moments (Debye-Ang)
        XX     -21.9918     XY       0.0068     YY     -21.4650
        XZ      -0.0406     YZ      -0.1631     ZZ     -22.2848

 Total job time:  27.44s(wall), 74.79s(cpu)
        *  Thank you very much for using Q-Chem.  Have a nice day.  *
