 Q-Chem 5.3 (devel), Q-Chem, Inc., Pleasanton, CA (2020)
 Q-Chem 5.3.0 for Intel X86 EM64T Linux

User input:
--------------------------------------------------------------
$rem
   JOBTYPE  sp
   EXCHANGE   omegaB97X-D
   BASIS   6-311+G(2df,2pd)
   UNRESTRICTED   False
   max_scf_cycles   250
   geom_opt_max_cycles   1500
   basis2 6-31G*
   scf_algorithm rca_diis
   SYM_IGNORE  TRUE
   print_input   true
   geom_opt_dmax   80
   pop_mulliken false
   XC_GRID 000075000302
$end

$molecule
0 1
C       1.2896278571     0.0002265574     0.2743592864
C       0.0188165398     -0.0000310265     -0.5873604809
H       1.3144494351     -0.7711354836     0.8357534887
H       1.3151155808     0.7725638899     0.8342820985
H       2.0917548010     -0.0006519857     -0.2801851927
C       -1.2446341131     -0.0001823996     0.2444248767
H       0.0242389193     -0.8739422380     -1.2431058461
H       0.0239505259     0.8738002006     -1.2432143162
H       -1.2983822346     -0.9895916722     0.9721704553
H       -2.2374080349     0.0008370527     -0.4399327999
H       -1.2975293371     0.9881077709     0.9738534489
$end
--------------------------------------------------------------

             Standard Nuclear Orientation (Angstroms)
    I     Atom           X                Y                Z
 ----------------------------------------------------------------
    1      C       1.2896278571     0.0002265574     0.2743592864
    2      C       0.0188165398    -0.0000310265    -0.5873604809
    3      H       1.3144494351    -0.7711354836     0.8357534887
    4      H       1.3151155808     0.7725638899     0.8342820985
    5      H       2.0917548010    -0.0006519857    -0.2801851927
    6      C      -1.2446341131    -0.0001823996     0.2444248767
    7      H       0.0242389193    -0.8739422380    -1.2431058461
    8      H       0.0239505259     0.8738002006    -1.2432143162
    9      H      -1.2983822346    -0.9895916722     0.9721704553
   10      H      -2.2374080349     0.0008370527    -0.4399327999
   11      H      -1.2975293371     0.9881077709     0.9738534489
 ----------------------------------------------------------------

    7    -119.0357642284      5.86E-06 Convergence criterion met
    6    -119.0811920526      4.06E-06 Convergence criterion met
 Total energy in the final basis set = -119.08119205

                    Orbital Energies (a.u.)
 --------------------------------------------------------------

 Alpha MOs
 -- Occupied --
-10.3039 -10.2753 -10.2217  -0.8875  -0.7854  -0.6725  -0.5517  -0.5302
 -0.4823  -0.4679  -0.4285  -0.4062  -0.4023

                    Cartesian Multipole Moments
 -----------------------------------------------------------------
    Charge (ESU x 10^10)
                 0.0000
    Dipole Moment (Debye)
         X       0.2931      Y       0.0000      Z      -0.1170
       Tot       0.3156
    Quadrupole Moments (Debye-Ang)
        XX     -22.1447     XY      -0.0002     YY     -21.3501
        XZ       0.2937     YZ      -0.0000     ZZ     -21.8016

 Total job time:  28.50s(wall), 76.38s(cpu)
        *  Thank you very much for using Q-Chem.  Have a nice day.  *
