 Q-Chem 5.3 (devel), Q-Chem, Inc., Pleasanton, CA (2020)
 Q-Chem 5.3.0 for Intel X86 EM64T Linux

User input:
--------------------------------------------------------------
$rem
   JOBTYPE  sp
   EXCHANGE   omegaB97X-D
   BASIS   6-311+G(2df,2pd)
   UNRESTRICTED   False
   max_scf_cycles   250
   geom_opt_max_cycles   1500
   basis2 6-31G*
   scf_algorithm rca_diis
   SYM_IGNORE  TRUE
   print_input   true
   geom_opt_dmax   80
   pop_mulliken false
   XC_GRID 000075000302
$end

$molecule
0 1
C       1.3127006855     -0.0015242600     0.3682821216
C       0.0000009976     0.0004643702     -0.5163351001
H       1.0730526684     -0.9382141779     0.8639002462
H       1.0844526297     0.9406560853     0.8590468561
H       1.9876315622     -0.0044762470     -0.4811951708
C       -1.3126986918     -0.0015237672     0.3682816093
H       -0.0000001659     -0.8669836095     -1.1851315373
H       0.0000011639     0.8736359759     -1.1775572764
H       -1.0730541479     -0.9382135869     0.8639016821
H       -1.9876332369     -0.0044784134     -0.4811930587
H       -1.0844535254     0.9406582966     0.8590446469
$end
--------------------------------------------------------------

             Standard Nuclear Orientation (Angstroms)
    I     Atom           X                Y                Z
 ----------------------------------------------------------------
    1      C       1.3127006855    -0.0015242600     0.3682821216
    2      C       0.0000009976     0.0004643702    -0.5163351001
    3      H       1.0730526684    -0.9382141779     0.8639002462
    4      H       1.0844526297     0.9406560853     0.8590468561
    5      H       1.9876315622    -0.0044762470    -0.4811951708
    6      C      -1.3126986918    -0.0015237672     0.3682816093
    7      H      -0.0000001659    -0.8669836095    -1.1851315373
    8      H       0.0000011639     0.8736359759    -1.1775572764
    9      H      -1.0730541479    -0.9382135869     0.8639016821
   10      H      -1.9876332369    -0.0044784134    -0.4811930587
   11      H      -1.0844535254     0.9406582966     0.8590446469
 ----------------------------------------------------------------

    7    -119.0394290347      7.29E-06 Convergence criterion met
    6    -119.0849491193      4.05E-06 Convergence criterion met
 Total energy in the final basis set = -119.08494912

                    Orbital Energies (a.u.)
 --------------------------------------------------------------

 Alpha MOs
 -- Occupied --
-10.2760 -10.2703 -10.2703  -0.8888  -0.7801  -0.6618  -0.5677  -0.5312
 -0.4904  -0.4842  -0.4148  -0.3990  -0.3784

                    Cartesian Multipole Moments
 -----------------------------------------------------------------
    Charge (ESU x 10^10)
                 0.0000
    Dipole Moment (Debye)
         X      -0.0000      Y       0.0061      Z      -0.5228
       Tot       0.5228
    Quadrupole Moments (Debye-Ang)
        XX     -24.7784     XY       0.0000     YY     -20.8349
        XZ      -0.0000     YZ       0.0085     ZZ     -22.4362

 Total job time:  27.89s(wall), 76.23s(cpu)
        *  Thank you very much for using Q-Chem.  Have a nice day.  *
