 Q-Chem 5.3 (devel), Q-Chem, Inc., Pleasanton, CA (2020)
 Q-Chem 5.3.0 for Intel X86 EM64T Linux

User input:
--------------------------------------------------------------
$rem
   JOBTYPE  sp
   EXCHANGE   omegaB97X-D
   BASIS   6-311+G(2df,2pd)
   UNRESTRICTED   False
   max_scf_cycles   250
   geom_opt_max_cycles   1500
   basis2 6-31G*
   scf_algorithm rca_diis
   SYM_IGNORE  TRUE
   print_input   true
   geom_opt_dmax   80
   pop_mulliken false
   XC_GRID 000075000302
$end

$molecule
0 1
C       1.2480642689     -0.0019436972     0.2345523051
C       -0.0512792547     0.0001437577     -0.5889218808
H       1.3135219898     -0.8789270143     0.8840780215
H       1.2962680735     0.8538053655     0.9131142663
H       2.1653394491     0.0113927934     -0.3564181601
C       -1.2839289670     0.0026644448     0.2828633224
H       0.0334138546     -0.8736659253     -1.2393374286
H       0.0425903310     0.8726768513     -1.2397914482
H       -1.2924251840     -0.8815315706     0.9209947601
H       -2.1613568295     -0.0107230275     -0.3631779942
H       -1.3102077922     0.9061086881     0.8930892553
$end
--------------------------------------------------------------

             Standard Nuclear Orientation (Angstroms)
    I     Atom           X                Y                Z
 ----------------------------------------------------------------
    1      C       1.2480642689    -0.0019436972     0.2345523051
    2      C      -0.0512792547     0.0001437577    -0.5889218808
    3      H       1.3135219898    -0.8789270143     0.8840780215
    4      H       1.2962680735     0.8538053655     0.9131142663
    5      H       2.1653394491     0.0113927934    -0.3564181601
    6      C      -1.2839289670     0.0026644448     0.2828633224
    7      H       0.0334138546    -0.8736659253    -1.2393374286
    8      H       0.0425903310     0.8726768513    -1.2397914482
    9      H      -1.2924251840    -0.8815315706     0.9209947601
   10      H      -2.1613568295    -0.0107230275    -0.3631779942
   11      H      -1.3102077922     0.9061086881     0.8930892553
 ----------------------------------------------------------------

    7    -119.0998759693      4.66E-06 Convergence criterion met
    5    -119.1429161702      9.98E-06 Convergence criterion met
 Total energy in the final basis set = -119.14291617

                    Orbital Energies (a.u.)
 --------------------------------------------------------------

 Alpha MOs
 -- Occupied --
-10.2745 -10.2669 -10.2632  -0.8819  -0.7775  -0.6779  -0.5464  -0.5242
 -0.4839  -0.4637  -0.4235  -0.4109  -0.4068

                    Cartesian Multipole Moments
 -----------------------------------------------------------------
    Charge (ESU x 10^10)
                 0.0000
    Dipole Moment (Debye)
         X      -0.0171      Y      -0.0001      Z      -0.0797
       Tot       0.0815
    Quadrupole Moments (Debye-Ang)
        XX     -22.1740     XY      -0.0087     YY     -21.3697
        XZ      -0.1144     YZ      -0.0000     ZZ     -21.8701

 Total job time:  24.76s(wall), 66.84s(cpu)
        *  Thank you very much for using Q-Chem.  Have a nice day.  *
