 Q-Chem 5.3 (devel), Q-Chem, Inc., Pleasanton, CA (2020)
 Q-Chem 5.3.0 for Intel X86 EM64T Linux

User input:
--------------------------------------------------------------
$rem
   JOBTYPE  sp
   EXCHANGE   omegaB97X-D
   BASIS   6-311+G(2df,2pd)
   UNRESTRICTED   False
   max_scf_cycles   250
   geom_opt_max_cycles   1500
   basis2 6-31G*
   scf_algorithm rca_diis
   SYM_IGNORE  TRUE
   print_input   true
   geom_opt_dmax   80
   pop_mulliken false
   XC_GRID 000075000302
$end

$molecule
0 1
C       1.2874263439     -0.0153620727     0.2288739254
C       0.0138211636     0.0006985999     -0.5874443930
H       1.3047536281     -0.9039094597     0.8632379416
H       1.2503828642     0.8473250370     0.8980354750
H       2.2239876885     0.0280064569     -0.3265865867
C       -1.2458562942     0.0161877960     0.2900304237
H       -0.0605562655     -0.8715334297     -1.2412302491
H       -0.0100332450     0.8753288213     -1.2418216888
H       -1.3026421132     -0.8565661339     0.9436298285
H       -2.0986792141     -0.0314595756     -0.3890161110
H       -1.3626046168     0.9112846266     0.9033364535
$end
--------------------------------------------------------------

             Standard Nuclear Orientation (Angstroms)
    I     Atom           X                Y                Z
 ----------------------------------------------------------------
    1      C       1.2874263439    -0.0153620727     0.2288739254
    2      C       0.0138211636     0.0006985999    -0.5874443930
    3      H       1.3047536281    -0.9039094597     0.8632379416
    4      H       1.2503828642     0.8473250370     0.8980354750
    5      H       2.2239876885     0.0280064569    -0.3265865867
    6      C      -1.2458562942     0.0161877960     0.2900304237
    7      H      -0.0605562655    -0.8715334297    -1.2412302491
    8      H      -0.0100332450     0.8753288213    -1.2418216888
    9      H      -1.3026421132    -0.8565661339     0.9436298285
   10      H      -2.0986792141    -0.0314595756    -0.3890161110
   11      H      -1.3626046168     0.9112846266     0.9033364535
 ----------------------------------------------------------------

    7    -119.1009028418      4.54E-06 Convergence criterion met
    6    -119.1438921917      3.90E-06 Convergence criterion met
 Total energy in the final basis set = -119.14389219

                    Orbital Energies (a.u.)
 --------------------------------------------------------------

 Alpha MOs
 -- Occupied --
-10.2744 -10.2661 -10.2642  -0.8817  -0.7774  -0.6777  -0.5460  -0.5249
 -0.4827  -0.4638  -0.4189  -0.4160  -0.4073

                    Cartesian Multipole Moments
 -----------------------------------------------------------------
    Charge (ESU x 10^10)
                 0.0000
    Dipole Moment (Debye)
         X      -0.0358      Y       0.0021      Z      -0.0860
       Tot       0.0932
    Quadrupole Moments (Debye-Ang)
        XX     -22.1601     XY       0.0043     YY     -21.3648
        XZ      -0.0290     YZ      -0.0056     ZZ     -21.8594

 Total job time:  27.48s(wall), 74.62s(cpu)
        *  Thank you very much for using Q-Chem.  Have a nice day.  *
