 Q-Chem 5.3 (devel), Q-Chem, Inc., Pleasanton, CA (2020)
 Q-Chem 5.3.0 for Intel X86 EM64T Linux

User input:
--------------------------------------------------------------
$rem
   JOBTYPE  sp
   EXCHANGE   omegaB97X-D
   BASIS   6-311+G(2df,2pd)
   UNRESTRICTED   False
   max_scf_cycles   250
   geom_opt_max_cycles   1500
   basis2 6-31G*
   scf_algorithm rca_diis
   SYM_IGNORE  TRUE
   print_input   true
   geom_opt_dmax   80
   pop_mulliken false
   XC_GRID 000075000302
$end

$molecule
0 1
C       1.2331003044     0.1430114460     0.2634395396
C       -0.0000000642     0.2609794339     -0.6174128250
H       0.9610465556     -0.8575178193     0.6180566404
H       1.4988519299     0.7506839393     1.1245035300
H       2.1135598439     -0.0556053516     -0.3499755376
C       -1.2331006817     0.1430115606     0.2634390647
H       -0.0000002073     -0.8340638361     -0.7082771919
H       0.0000003289     0.6119408234     -1.6453126472
H       -0.9610463169     -0.8575177683     0.6180557376
H       -2.1135606384     -0.0556045283     -0.3499756066
H       -1.4988511148     0.7506827664     1.1245043150
$end
--------------------------------------------------------------

             Standard Nuclear Orientation (Angstroms)
    I     Atom           X                Y                Z
 ----------------------------------------------------------------
    1      C       1.2331003044     0.1430114460     0.2634395396
    2      C      -0.0000000642     0.2609794339    -0.6174128250
    3      H       0.9610465556    -0.8575178193     0.6180566404
    4      H       1.4988519299     0.7506839393     1.1245035300
    5      H       2.1135598439    -0.0556053516    -0.3499755376
    6      C      -1.2331006817     0.1430115606     0.2634390647
    7      H      -0.0000002073    -0.8340638361    -0.7082771919
    8      H       0.0000003289     0.6119408234    -1.6453126472
    9      H      -0.9610463169    -0.8575177683     0.6180557376
   10      H      -2.1135606384    -0.0556045283    -0.3499756066
   11      H      -1.4988511148     0.7506827664     1.1245043150
 ----------------------------------------------------------------

    7    -119.0234993598      6.36E-06 Convergence criterion met
    6    -119.0701722971      3.73E-06 Convergence criterion met
 Total energy in the final basis set = -119.07017230

                    Orbital Energies (a.u.)
 --------------------------------------------------------------

 Alpha MOs
 -- Occupied --
-10.2781 -10.2697 -10.2697  -0.9076  -0.7797  -0.6758  -0.5692  -0.5228
 -0.5008  -0.4418  -0.4367  -0.4119  -0.3691

                    Cartesian Multipole Moments
 -----------------------------------------------------------------
    Charge (ESU x 10^10)
                -0.0000
    Dipole Moment (Debye)
         X       0.0000      Y      -0.4138      Z      -0.1533
       Tot       0.4413
    Quadrupole Moments (Debye-Ang)
        XX     -22.2897     XY       0.0000     YY     -22.1271
        XZ       0.0000     YZ       0.4117     ZZ     -21.4890

 Total job time:  26.92s(wall), 73.75s(cpu)
        *  Thank you very much for using Q-Chem.  Have a nice day.  *
