 Q-Chem 5.2 (devel), Q-Chem, Inc., Pleasanton, CA (2019)
 Q-Chem 5.2.2 for Intel X86 EM64T Linux

User input:
--------------------------------------------------------------
$rem
   JOBTYPE  sp
   EXCHANGE   omegaB97X-D
   BASIS   6-311+G(2df,2pd)
   max_scf_cycles   250
   geom_opt_max_cycles   1500
   basis2 6-31G*
   scf_algorithm rca_diis
   SYM_IGNORE  TRUE
   print_input   true
   geom_opt_dmax   80
   pop_mulliken false
   XC_GRID 000075000302
$end

$molecule
0 1
C       1.2325725687     0.0124791100     0.2942471939
C       -0.0230395032     -0.0027030714     -0.5848820645
H       1.3872127615     -0.9661911608     0.7532446428
H       1.2425450464     0.9752904095     0.7962517079
H       2.1867257646     -0.0801756266     -0.2362882945
C       -1.3008741632     -0.0208972812     0.2292093146
H       0.0432578989     -0.8740389005     -1.2407292238
H       -0.0154759490     0.8724368401     -1.2389690172
H       -1.2437588292     -0.7566849458     1.0337685248
H       -2.1292202592     0.0830449490     -0.4642426818
H       -1.3799453969     0.7574403437     0.9994349167
--------------------------------------------------------------

             Standard Nuclear Orientation (Angstroms)
    I     Atom           X                Y                Z
 ----------------------------------------------------------------
    1      C       1.2325725687     0.0124791100     0.2942471939
    2      C      -0.0230395032    -0.0027030714    -0.5848820645
    3      H       1.3872127615    -0.9661911608     0.7532446428
    4      H       1.2425450464     0.9752904095     0.7962517079
    5      H       2.1867257646    -0.0801756266    -0.2362882945
    6      C      -1.3008741632    -0.0208972812     0.2292093146
    7      H       0.0432578989    -0.8740389005    -1.2407292238
    8      H      -0.0154759490     0.8724368401    -1.2389690172
    9      H      -1.2437588292    -0.7566849458     1.0337685248
   10      H      -2.1292202592     0.0830449490    -0.4642426818
   11      H      -1.3799453969     0.7574403437     0.9994349167
 ----------------------------------------------------------------

    7    -119.0712073115      6.39E-06 Convergence criterion met
    6    -119.1159000119      3.99E-06 Convergence criterion met
 Total energy in the final basis set = -119.11590001

                    Orbital Energies (a.u.)
 --------------------------------------------------------------

 Alpha MOs
 -- Occupied --
-10.2743 -10.2660 -10.2654  -0.8827  -0.7809  -0.6813  -0.5530  -0.5368
 -0.4862  -0.4587  -0.4249  -0.4016  -0.3891

                    Cartesian Multipole Moments
 -----------------------------------------------------------------
    Charge (ESU x 10^10)
                 0.0000
    Dipole Moment (Debye)
         X       0.1313      Y       0.0178      Z      -0.0780
       Tot       0.1537
    Quadrupole Moments (Debye-Ang)
        XX     -22.1221     XY      -0.7483     YY     -21.5267
        XZ      -0.0201     YZ       0.0310     ZZ     -21.8694

 Total job time:  49.20s(wall), 137.15s(cpu)
        *  Thank you very much for using Q-Chem.  Have a nice day.  *
