 Q-Chem 5.2 (devel), Q-Chem, Inc., Pleasanton, CA (2019)
 Q-Chem 5.2.2 for Intel X86 EM64T Linux

User input:
--------------------------------------------------------------
$rem
   JOBTYPE  sp
   EXCHANGE   omegaB97X-D
   BASIS   6-311+G(2df,2pd)
   max_scf_cycles   250
   geom_opt_max_cycles   1500
   basis2 6-31G*
   scf_algorithm rca_diis
   SYM_IGNORE  TRUE
   print_input   true
   geom_opt_dmax   80
   pop_mulliken false
   XC_GRID 000075000302
$end

$molecule
0 1
C       1.2758891048     0.0287600309     0.1651519940
C       -0.0000000991     -0.0297749626     -0.5332328855
H       1.0873200033     -0.8216093336     0.8305117275
H       1.1545527697     0.8500420383     0.8751130568
H       2.2810695615     -0.0350581275     -0.2384137343
C       -1.2758890340     0.0287601096     0.1651518645
H       0.0000004861     -0.8736986600     -1.2235601134
H       -0.0000003273     0.8592041111     -1.1668879643
H       -1.0873201912     -0.8216092799     0.8305116508
H       -2.2810697511     -0.0350574643     -0.2384134469
H       -1.1545525833     0.8500422041     0.8751128697
--------------------------------------------------------------

             Standard Nuclear Orientation (Angstroms)
    I     Atom           X                Y                Z
 ----------------------------------------------------------------
    1      C       1.2758891048     0.0287600309     0.1651519940
    2      C      -0.0000000991    -0.0297749626    -0.5332328855
    3      H       1.0873200033    -0.8216093336     0.8305117275
    4      H       1.1545527697     0.8500420383     0.8751130568
    5      H       2.2810695615    -0.0350581275    -0.2384137343
    6      C      -1.2758890340     0.0287601096     0.1651518645
    7      H       0.0000004861    -0.8736986600    -1.2235601134
    8      H      -0.0000003273     0.8592041111    -1.1668879643
    9      H      -1.0873201912    -0.8216092799     0.8305116508
   10      H      -2.2810697511    -0.0350574643    -0.2384134469
   11      H      -1.1545525833     0.8500422041     0.8751128697
 ----------------------------------------------------------------

    7    -119.0553838272      4.81E-06 Convergence criterion met
    6    -119.1008797057      4.21E-06 Convergence criterion met
 Total energy in the final basis set = -119.10087971

                    Orbital Energies (a.u.)
 --------------------------------------------------------------

 Alpha MOs
 -- Occupied --
-10.2662 -10.2660 -10.2657  -0.9095  -0.7900  -0.6744  -0.5607  -0.5542
 -0.4786  -0.4762  -0.4475  -0.3996  -0.3701

                    Cartesian Multipole Moments
 -----------------------------------------------------------------
    Charge (ESU x 10^10)
                 0.0000
    Dipole Moment (Debye)
         X      -0.0000      Y      -0.0297      Z      -0.0286
       Tot       0.0412
    Quadrupole Moments (Debye-Ang)
        XX     -20.7568     XY      -0.0000     YY     -21.9500
        XZ      -0.0000     YZ       0.4111     ZZ     -22.8535

 Total job time:  49.74s(wall), 138.84s(cpu)
        *  Thank you very much for using Q-Chem.  Have a nice day.  *
