 Q-Chem 5.2 (devel), Q-Chem, Inc., Pleasanton, CA (2019)
 Q-Chem 5.2.2 for Intel X86 EM64T Linux

User input:
--------------------------------------------------------------
$rem
   JOBTYPE  sp
   EXCHANGE   omegaB97X-D
   BASIS   6-311+G(2df,2pd)
   max_scf_cycles   250
   geom_opt_max_cycles   1500
   basis2 6-31G*
   scf_algorithm rca_diis
   SYM_IGNORE  TRUE
   print_input   true
   geom_opt_dmax   80
   pop_mulliken false
   XC_GRID 000075000302
$end

$molecule
0 1
C       1.2877073509     -0.0079618992     0.2286164065
C       0.0138407058     -0.0000427078     -0.5874134706
H       1.2898504274     -0.8738867601     0.8937509304
H       1.2639635079     0.8768005984     0.8689366501
H       2.2249566279     -0.0001772947     -0.3273221147
C       -1.2461386993     0.0082504058     0.2897252847
H       -0.0552182337     -0.8726621947     -1.2412657899
H       -0.0153111433     0.8737893039     -1.2426420517
H       -1.3184787684     -0.8857682639     0.9123116352
H       -2.0998435147     -0.0002220972     -0.3898317691
H       -1.3453283211     0.8818815755     0.9361793081
--------------------------------------------------------------

             Standard Nuclear Orientation (Angstroms)
    I     Atom           X                Y                Z
 ----------------------------------------------------------------
    1      C       1.2877073509    -0.0079618992     0.2286164065
    2      C       0.0138407058    -0.0000427078    -0.5874134706
    3      H       1.2898504274    -0.8738867601     0.8937509304
    4      H       1.2639635079     0.8768005984     0.8689366501
    5      H       2.2249566279    -0.0001772947    -0.3273221147
    6      C      -1.2461386993     0.0082504058     0.2897252847
    7      H      -0.0552182337    -0.8726621947    -1.2412657899
    8      H      -0.0153111433     0.8737893039    -1.2426420517
    9      H      -1.3184787684    -0.8857682639     0.9123116352
   10      H      -2.0998435147    -0.0002220972    -0.3898317691
   11      H      -1.3453283211     0.8818815755     0.9361793081
 ----------------------------------------------------------------

    7    -119.1009590540      4.53E-06 Convergence criterion met
    6    -119.1439468224      3.91E-06 Convergence criterion met
 Total energy in the final basis set = -119.14394682

                    Orbital Energies (a.u.)
 --------------------------------------------------------------

 Alpha MOs
 -- Occupied --
-10.2745 -10.2661 -10.2642  -0.8817  -0.7774  -0.6778  -0.5459  -0.5250
 -0.4829  -0.4635  -0.4190  -0.4162  -0.4072

                    Cartesian Multipole Moments
 -----------------------------------------------------------------
    Charge (ESU x 10^10)
                 0.0000
    Dipole Moment (Debye)
         X      -0.0358      Y       0.0016      Z      -0.0850
       Tot       0.0922
    Quadrupole Moments (Debye-Ang)
        XX     -22.1576     XY      -0.0046     YY     -21.3757
        XZ      -0.0294     YZ      -0.0029     ZZ     -21.8504

 Total job time:  48.65s(wall), 135.95s(cpu)
        *  Thank you very much for using Q-Chem.  Have a nice day.  *
