 Q-Chem 5.3 (devel), Q-Chem, Inc., Pleasanton, CA (2020)
 Q-Chem 5.3.0 for Intel X86 EM64T Linux

User input:
--------------------------------------------------------------
$rem
   JOBTYPE  sp
   EXCHANGE   omegaB97X-D
   BASIS   6-311+G(2df,2pd)
   UNRESTRICTED   False
   max_scf_cycles   250
   geom_opt_max_cycles   1500
   basis2 6-31G*
   scf_algorithm rca_diis
   SYM_IGNORE  TRUE
   print_input   true
   geom_opt_dmax   80
   pop_mulliken false
   XC_GRID 000075000302
$end

$molecule
0 1
C       1.2673628070     0.0891170972     0.2590904456
C       0.0036227089     -0.0023949316     -0.5848910635
H       1.2743716568     -0.8207417510     0.8633722229
H       1.3354323582     0.9449495213     0.9324058561
H       2.1656541605     0.0063594060     -0.3539335826
C       -1.2676095263     -0.0887690617     0.2542967453
H       -0.2537087839     -0.8426690723     -1.2341033416
H       0.2435957462     0.8377122339     -1.2409318864
H       -1.3415447640     -0.9381969479     0.9356983399
H       -2.1604050829     0.0038918920     -0.3645734797
H       -1.2667713410     0.8107422800     0.8746147629
$end
--------------------------------------------------------------

             Standard Nuclear Orientation (Angstroms)
    I     Atom           X                Y                Z
 ----------------------------------------------------------------
    1      C       1.2673628070     0.0891170972     0.2590904456
    2      C       0.0036227089    -0.0023949316    -0.5848910635
    3      H       1.2743716568    -0.8207417510     0.8633722229
    4      H       1.3354323582     0.9449495213     0.9324058561
    5      H       2.1656541605     0.0063594060    -0.3539335826
    6      C      -1.2676095263    -0.0887690617     0.2542967453
    7      H      -0.2537087839    -0.8426690723    -1.2341033416
    8      H       0.2435957462     0.8377122339    -1.2409318864
    9      H      -1.3415447640    -0.9381969479     0.9356983399
   10      H      -2.1604050829     0.0038918920    -0.3645734797
   11      H      -1.2667713410     0.8107422800     0.8746147629
 ----------------------------------------------------------------

    7    -119.0749971529      5.52E-06 Convergence criterion met
    6    -119.1189135393      4.23E-06 Convergence criterion met
 Total energy in the final basis set = -119.11891354

                    Orbital Energies (a.u.)
 --------------------------------------------------------------

 Alpha MOs
 -- Occupied --
-10.2737 -10.2670 -10.2668  -0.8842  -0.7809  -0.6779  -0.5480  -0.5262
 -0.4954  -0.4691  -0.4311  -0.4097  -0.3748

                    Cartesian Multipole Moments
 -----------------------------------------------------------------
    Charge (ESU x 10^10)
                -0.0000
    Dipole Moment (Debye)
         X       0.0034      Y       0.0020      Z      -0.0446
       Tot       0.0448
    Quadrupole Moments (Debye-Ang)
        XX     -21.9964     XY       0.6891     YY     -21.5327
        XZ       0.0216     YZ      -0.0075     ZZ     -21.9773

 Total job time:  27.13s(wall), 73.50s(cpu)
        *  Thank you very much for using Q-Chem.  Have a nice day.  *
