 Q-Chem 5.3 (devel), Q-Chem, Inc., Pleasanton, CA (2020)
 Q-Chem 5.3.0 for Intel X86 EM64T Linux

User input:
--------------------------------------------------------------
$rem
   JOBTYPE  sp
   EXCHANGE   omegaB97X-D
   BASIS   6-311+G(2df,2pd)
   UNRESTRICTED   False
   max_scf_cycles   250
   geom_opt_max_cycles   1500
   basis2 6-31G*
   scf_algorithm rca_diis
   SYM_IGNORE  TRUE
   print_input   true
   geom_opt_dmax   80
   pop_mulliken false
   XC_GRID 000075000302
$end

$molecule
0 1
C       1.5103281441     -0.0064923824     0.2682267775
C       -0.0000000739     0.0225055816     -0.1157742740
H       1.8792156986     -0.8832461192     0.8007853481
H       1.9360993276     0.8895226196     0.7211597118
H       1.9148209141     -0.0587948052     -0.7476244737
C       -1.5103284075     -0.0064931276     0.2682261200
H       0.0000009751     -0.7960574918     -0.8451276685
H       -0.0000004414     0.8915744836     -0.7831473892
H       -1.8792161107     -0.8832468846     0.8007845404
H       -1.9148219400     -0.0587927311     -0.7476246873
H       -1.9360981466     0.8895215231     0.7211610137
$end
--------------------------------------------------------------

             Standard Nuclear Orientation (Angstroms)
    I     Atom           X                Y                Z
 ----------------------------------------------------------------
    1      C       1.5103281441    -0.0064923824     0.2682267775
    2      C      -0.0000000739     0.0225055816    -0.1157742740
    3      H       1.8792156986    -0.8832461192     0.8007853481
    4      H       1.9360993276     0.8895226196     0.7211597118
    5      H       1.9148209141    -0.0587948052    -0.7476244737
    6      C      -1.5103284075    -0.0064931276     0.2682261200
    7      H       0.0000009751    -0.7960574918    -0.8451276685
    8      H      -0.0000004414     0.8915744836    -0.7831473892
    9      H      -1.8792161107    -0.8832468846     0.8007845404
   10      H      -1.9148219400    -0.0587927311    -0.7476246873
   11      H      -1.9360981466     0.8895215231     0.7211610137
 ----------------------------------------------------------------

    7    -119.0525133640      4.42E-06 Convergence criterion met
    6    -119.0961997270      4.22E-06 Convergence criterion met
 Total energy in the final basis set = -119.09619973

                    Orbital Energies (a.u.)
 --------------------------------------------------------------

 Alpha MOs
 -- Occupied --
-10.2808 -10.2757 -10.2757  -0.8751  -0.7942  -0.6713  -0.5378  -0.5035
 -0.5030  -0.4779  -0.4276  -0.3986  -0.3816

                    Cartesian Multipole Moments
 -----------------------------------------------------------------
    Charge (ESU x 10^10)
                -0.0000
    Dipole Moment (Debye)
         X       0.0000      Y      -0.0079      Z      -0.3367
       Tot       0.3368
    Quadrupole Moments (Debye-Ang)
        XX     -21.6965     XY      -0.0000     YY     -21.4745
        XZ       0.0000     YZ      -0.0225     ZZ     -21.9541

 Total job time:  26.60s(wall), 71.50s(cpu)
        *  Thank you very much for using Q-Chem.  Have a nice day.  *
