 Q-Chem 5.3 (devel), Q-Chem, Inc., Pleasanton, CA (2020)
 Q-Chem 5.3.0 for Intel X86 EM64T Linux

User input:
--------------------------------------------------------------
$rem
   JOBTYPE  sp
   EXCHANGE   omegaB97X-D
   BASIS   6-311+G(2df,2pd)
   UNRESTRICTED   False
   max_scf_cycles   250
   geom_opt_max_cycles   1500
   basis2 6-31G*
   scf_algorithm rca_diis
   SYM_IGNORE  TRUE
   print_input   true
   geom_opt_dmax   80
   pop_mulliken false
   XC_GRID 000075000302
$end

$molecule
0 1
C       1.2683172934     0.0004631023     0.2689243736
C       0.0000001430     -0.0010338580     -0.5623633869
H       1.3076552765     -0.8856806209     0.9162153691
H       1.3038306610     0.8843511718     0.9187502468
H       2.1485774594     0.0033743032     -0.3367514173
C       -1.2683169264     0.0004631738     0.2689241849
H       0.0000001641     -0.9913594620     -1.3134367425
H       0.0000001412     0.9873775141     -1.3174326030
H       -1.3076551529     -0.8856823593     0.9162165480
H       -2.1485786420     0.0033750336     -0.3367526440
H       -1.3038304780     0.8843526673     0.9187510902
$end
--------------------------------------------------------------

             Standard Nuclear Orientation (Angstroms)
    I     Atom           X                Y                Z
 ----------------------------------------------------------------
    1      C       1.2683172934     0.0004631023     0.2689243736
    2      C       0.0000001430    -0.0010338580    -0.5623633869
    3      H       1.3076552765    -0.8856806209     0.9162153691
    4      H       1.3038306610     0.8843511718     0.9187502468
    5      H       2.1485774594     0.0033743032    -0.3367514173
    6      C      -1.2683169264     0.0004631738     0.2689241849
    7      H       0.0000001641    -0.9913594620    -1.3134367425
    8      H       0.0000001412     0.9873775141    -1.3174326030
    9      H      -1.3076551529    -0.8856823593     0.9162165480
   10      H      -2.1485786420     0.0033750336    -0.3367526440
   11      H      -1.3038304780     0.8843526673     0.9187510902
 ----------------------------------------------------------------

    7    -119.0827171678      4.66E-06 Convergence criterion met
    6    -119.1248572457      4.29E-06 Convergence criterion met
 Total energy in the final basis set = -119.12485725

                    Orbital Energies (a.u.)
 --------------------------------------------------------------

 Alpha MOs
 -- Occupied --
-10.3045 -10.2670 -10.2669  -0.8784  -0.7821  -0.6590  -0.5358  -0.5289
 -0.4853  -0.4647  -0.4273  -0.4104  -0.3897

                    Cartesian Multipole Moments
 -----------------------------------------------------------------
    Charge (ESU x 10^10)
                -0.0000
    Dipole Moment (Debye)
         X       0.0000      Y      -0.0002      Z       0.1314
       Tot       0.1314
    Quadrupole Moments (Debye-Ang)
        XX     -21.9866     XY      -0.0000     YY     -21.6019
        XZ       0.0000     YZ       0.0001     ZZ     -22.3428

 Total job time:  26.35s(wall), 71.62s(cpu)
        *  Thank you very much for using Q-Chem.  Have a nice day.  *
