 Q-Chem 5.3 (devel), Q-Chem, Inc., Pleasanton, CA (2020)
 Q-Chem 5.3.0 for Intel X86 EM64T Linux

User input:
--------------------------------------------------------------
$rem
   JOBTYPE  sp
   EXCHANGE   omegaB97X-D
   BASIS   6-311+G(2df,2pd)
   UNRESTRICTED   False
   max_scf_cycles   250
   geom_opt_max_cycles   1500
   basis2 6-31G*
   scf_algorithm rca_diis
   SYM_IGNORE  TRUE
   print_input   true
   geom_opt_dmax   80
   pop_mulliken false
   XC_GRID 000075000302
$end

$molecule
0 1
C       1.2736853443     0.0290677104     0.2498905548
C       0.0036101872     -0.0000901356     -0.5870622208
H       1.2532168261     -0.8785255691     0.8583511815
H       1.3382413373     0.8734373808     0.9380348280
H       2.1824404835     -0.0075175625     -0.3511420746
C       -1.2601883571     -0.0280448163     0.2691252608
H       0.0626187385     -0.8721270251     -1.2426736389
H       -0.0839646876     0.8695857337     -1.2426163662
H       -1.3559293307     -0.8781251904     0.9460158231
H       -2.1451578995     0.0083685652     -0.3675326964
H       -1.2685727027     0.8839715750     0.8706543676
$end
--------------------------------------------------------------

             Standard Nuclear Orientation (Angstroms)
    I     Atom           X                Y                Z
 ----------------------------------------------------------------
    1      C       1.2736853443     0.0290677104     0.2498905548
    2      C       0.0036101872    -0.0000901356    -0.5870622208
    3      H       1.2532168261    -0.8785255691     0.8583511815
    4      H       1.3382413373     0.8734373808     0.9380348280
    5      H       2.1824404835    -0.0075175625    -0.3511420746
    6      C      -1.2601883571    -0.0280448163     0.2691252608
    7      H       0.0626187385    -0.8721270251    -1.2426736389
    8      H      -0.0839646876     0.8695857337    -1.2426163662
    9      H      -1.3559293307    -0.8781251904     0.9460158231
   10      H      -2.1451578995     0.0083685652    -0.3675326964
   11      H      -1.2685727027     0.8839715750     0.8706543676
 ----------------------------------------------------------------

    7    -119.1009713385      4.54E-06 Convergence criterion met
    6    -119.1439586097      3.90E-06 Convergence criterion met
 Total energy in the final basis set = -119.14395861

                    Orbital Energies (a.u.)
 --------------------------------------------------------------

 Alpha MOs
 -- Occupied --
-10.2744 -10.2655 -10.2650  -0.8817  -0.7775  -0.6777  -0.5464  -0.5247
 -0.4823  -0.4639  -0.4188  -0.4168  -0.4070

                    Cartesian Multipole Moments
 -----------------------------------------------------------------
    Charge (ESU x 10^10)
                -0.0000
    Dipole Moment (Debye)
         X      -0.0127      Y      -0.0033      Z      -0.0821
       Tot       0.0831
    Quadrupole Moments (Debye-Ang)
        XX     -22.1514     XY      -0.0317     YY     -21.3913
        XZ      -0.0109     YZ       0.0061     ZZ     -21.8406

 Total job time:  28.36s(wall), 76.13s(cpu)
        *  Thank you very much for using Q-Chem.  Have a nice day.  *
