 Q-Chem 5.2 (devel), Q-Chem, Inc., Pleasanton, CA (2019)
 Q-Chem 5.2.2 for Intel X86 EM64T Linux

User input:
--------------------------------------------------------------
$rem
   JOBTYPE  sp
   EXCHANGE   omegaB97X-D
   BASIS   6-311+G(2df,2pd)
   max_scf_cycles   250
   geom_opt_max_cycles   1500
   basis2 6-31G*
   scf_algorithm rca_diis
   SYM_IGNORE  TRUE
   print_input   true
   geom_opt_dmax   80
   pop_mulliken false
   XC_GRID 000075000302
$end

$molecule
0 1
C       1.2576122140     0.0317056136     0.3044139050
C       0.0000000092     0.0175845506     -0.5444045352
H       1.4273702142     -0.9379939049     0.7755008491
H       1.2658327665     0.9812585006     0.8328149834
H       2.1992013738     -0.1046715846     -0.2374827433
C       -1.2576124138     0.0317052666     0.3044133444
H       0.0000004796     -0.8279588590     -1.2362466585
H       -0.0000003094     0.8697747304     -1.2287987222
H       -1.4273672496     -0.9379933888     0.7755029505
H       -2.1992016147     -0.1046677682     -0.2374840984
H       -1.2658355304     0.9812575097     0.8328157440
--------------------------------------------------------------

             Standard Nuclear Orientation (Angstroms)
    I     Atom           X                Y                Z
 ----------------------------------------------------------------
    1      C       1.2576122140     0.0317056136     0.3044139050
    2      C       0.0000000092     0.0175845506    -0.5444045352
    3      H       1.4273702142    -0.9379939049     0.7755008491
    4      H       1.2658327665     0.9812585006     0.8328149834
    5      H       2.1992013738    -0.1046715846    -0.2374827433
    6      C      -1.2576124138     0.0317052666     0.3044133444
    7      H       0.0000004796    -0.8279588590    -1.2362466585
    8      H      -0.0000003094     0.8697747304    -1.2287987222
    9      H      -1.4273672496    -0.9379933888     0.7755029505
   10      H      -2.1992016147    -0.1046677682    -0.2374840984
   11      H      -1.2658355304     0.9812575097     0.8328157440
 ----------------------------------------------------------------

    7    -119.0709113208      6.91E-06 Convergence criterion met
    6    -119.1157396319      3.45E-06 Convergence criterion met
 Total energy in the final basis set = -119.11573963

                    Orbital Energies (a.u.)
 --------------------------------------------------------------

 Alpha MOs
 -- Occupied --
-10.2729 -10.2655 -10.2654  -0.8838  -0.7823  -0.6794  -0.5674  -0.5175
 -0.4994  -0.4541  -0.4131  -0.4095  -0.3913

                    Cartesian Multipole Moments
 -----------------------------------------------------------------
    Charge (ESU x 10^10)
                -0.0000
    Dipole Moment (Debye)
         X       0.0000      Y      -0.1503      Z      -0.2353
       Tot       0.2792
    Quadrupole Moments (Debye-Ang)
        XX     -21.6172     XY      -0.0000     YY     -20.5904
        XZ       0.0000     YZ       0.3943     ZZ     -23.0336

 Total job time:  48.36s(wall), 134.98s(cpu)
        *  Thank you very much for using Q-Chem.  Have a nice day.  *
