 Q-Chem 5.3 (devel), Q-Chem, Inc., Pleasanton, CA (2020)
 Q-Chem 5.3.0 for Intel X86 EM64T Linux

User input:
--------------------------------------------------------------
$rem
   JOBTYPE  sp
   EXCHANGE   omegaB97X-D
   BASIS   6-311+G(2df,2pd)
   UNRESTRICTED   False
   max_scf_cycles   250
   geom_opt_max_cycles   1500
   basis2 6-31G*
   scf_algorithm rca_diis
   SYM_IGNORE  TRUE
   print_input   true
   geom_opt_dmax   80
   pop_mulliken false
   XC_GRID 000075000302
$end

$molecule
0 1
C       1.2576848948     0.0129664196     0.3006905760
C       0.0000000339     0.0886461459     -0.5447572142
H       1.2995216421     -0.9190727065     0.8669163969
H       1.4045398378     1.0010149084     0.7286157108
H       2.1645197481     -0.3042565254     -0.2245337595
C       -1.2576848458     0.0129651197     0.3006901879
H       0.0000006858     -0.6785227525     -1.3226010940
H       -0.0000006425     1.0085734258     -1.1349752033
H       -1.2995198475     -0.9190742459     0.8669155313
H       -2.1645209489     -0.3042506930     -0.2245361097
H       -1.4045406185     1.0010115699     0.7286199967
$end
--------------------------------------------------------------

             Standard Nuclear Orientation (Angstroms)
    I     Atom           X                Y                Z
 ----------------------------------------------------------------
    1      C       1.2576848948     0.0129664196     0.3006905760
    2      C       0.0000000339     0.0886461459    -0.5447572142
    3      H       1.2995216421    -0.9190727065     0.8669163969
    4      H       1.4045398378     1.0010149084     0.7286157108
    5      H       2.1645197481    -0.3042565254    -0.2245337595
    6      C      -1.2576848458     0.0129651197     0.3006901879
    7      H       0.0000006858    -0.6785227525    -1.3226010940
    8      H      -0.0000006425     1.0085734258    -1.1349752033
    9      H      -1.2995198475    -0.9190742459     0.8669155313
   10      H      -2.1645209489    -0.3042506930    -0.2245361097
   11      H      -1.4045406185     1.0010115699     0.7286199967
 ----------------------------------------------------------------

    7    -119.0692565499      6.81E-06 Convergence criterion met
    6    -119.1140986411      3.51E-06 Convergence criterion met
 Total energy in the final basis set = -119.11409864

                    Orbital Energies (a.u.)
 --------------------------------------------------------------

 Alpha MOs
 -- Occupied --
-10.2726 -10.2648 -10.2648  -0.8835  -0.7818  -0.6799  -0.5649  -0.5164
 -0.5041  -0.4526  -0.4131  -0.4047  -0.3932

                    Cartesian Multipole Moments
 -----------------------------------------------------------------
    Charge (ESU x 10^10)
                -0.0000
    Dipole Moment (Debye)
         X       0.0000      Y      -0.1633      Z      -0.2201
       Tot       0.2741
    Quadrupole Moments (Debye-Ang)
        XX     -21.9438     XY      -0.0000     YY     -20.2923
        XZ       0.0000     YZ       0.1013     ZZ     -23.0793

 Total job time:  26.26s(wall), 71.84s(cpu)
        *  Thank you very much for using Q-Chem.  Have a nice day.  *
