 Q-Chem 5.3 (devel), Q-Chem, Inc., Pleasanton, CA (2020)
 Q-Chem 5.3.0 for Intel X86 EM64T Linux

User input:
--------------------------------------------------------------
$rem
   JOBTYPE  sp
   EXCHANGE   omegaB97X-D
   BASIS   6-311+G(2df,2pd)
   UNRESTRICTED   False
   max_scf_cycles   250
   geom_opt_max_cycles   1500
   basis2 6-31G*
   scf_algorithm rca_diis
   SYM_IGNORE  TRUE
   print_input   true
   geom_opt_dmax   80
   pop_mulliken false
   XC_GRID 000075000302
$end

$molecule
0 1
C       1.1825241766     0.0042204207     0.2511409485
C       -0.0084711419     0.0032507859     -0.5820309134
H       1.3755374881     -0.8092815383     0.9590471904
H       1.4214665864     0.8542959819     0.9000010947
H       2.1619453218     -0.0252838154     -0.2374311011
C       -1.3490667369     -0.0054853497     0.2813802440
H       -0.1360464572     -0.8674054891     -1.2296719275
H       -0.1490769823     0.8775706387     -1.2219930222
H       -1.1969920665     -0.9349419253     0.8265318021
H       -2.1274288659     0.0103327993     -0.4758170040
H       -1.1743913828     0.8927281574     0.8698877074
$end
--------------------------------------------------------------

             Standard Nuclear Orientation (Angstroms)
    I     Atom           X                Y                Z
 ----------------------------------------------------------------
    1      C       1.1825241766     0.0042204207     0.2511409485
    2      C      -0.0084711419     0.0032507859    -0.5820309134
    3      H       1.3755374881    -0.8092815383     0.9590471904
    4      H       1.4214665864     0.8542959819     0.9000010947
    5      H       2.1619453218    -0.0252838154    -0.2374311011
    6      C      -1.3490667369    -0.0054853497     0.2813802440
    7      H      -0.1360464572    -0.8674054891    -1.2296719275
    8      H      -0.1490769823     0.8775706387    -1.2219930222
    9      H      -1.1969920665    -0.9349419253     0.8265318021
   10      H      -2.1274288659     0.0103327993    -0.4758170040
   11      H      -1.1743913828     0.8927281574     0.8698877074
 ----------------------------------------------------------------

    7    -119.0717464460      5.66E-06 Convergence criterion met
    6    -119.1164436586      5.19E-06 Convergence criterion met
 Total energy in the final basis set = -119.11644366

                    Orbital Energies (a.u.)
 --------------------------------------------------------------

 Alpha MOs
 -- Occupied --
-10.2750 -10.2673 -10.2649  -0.8867  -0.7817  -0.6789  -0.5499  -0.5402
 -0.4724  -0.4630  -0.4500  -0.4051  -0.3781

                    Cartesian Multipole Moments
 -----------------------------------------------------------------
    Charge (ESU x 10^10)
                 0.0000
    Dipole Moment (Debye)
         X       0.2298      Y       0.0027      Z      -0.1421
       Tot       0.2703
    Quadrupole Moments (Debye-Ang)
        XX     -22.2732     XY       0.0283     YY     -21.4306
        XZ       1.5041     YZ       0.0002     ZZ     -22.0753

 Total job time:  28.36s(wall), 76.50s(cpu)
        *  Thank you very much for using Q-Chem.  Have a nice day.  *
