 Q-Chem 5.2 (devel), Q-Chem, Inc., Pleasanton, CA (2019)
 Q-Chem 5.2.2 for Intel X86 EM64T Linux

User input:
--------------------------------------------------------------
$rem
   JOBTYPE  sp
   EXCHANGE   omegaB97X-D
   BASIS   6-311+G(2df,2pd)
   max_scf_cycles   250
   geom_opt_max_cycles   1500
   basis2 6-31G*
   scf_algorithm rca_diis
   SYM_IGNORE  TRUE
   print_input   true
   geom_opt_dmax   80
   pop_mulliken false
   XC_GRID 000075000302
$end

$molecule
0 1
C       1.2594630012     0.0017320561     0.2922737337
C       -0.0000001307     0.0013643851     -0.5622484412
H       1.3019931522     -0.8404709531     0.9009711215
H       1.3016188290     0.8372357572     0.8965690117
H       2.2613120762     0.0010835627     -0.4052649227
C       -1.2594638861     0.0017320753     0.2922728442
H       0.0000000574     -0.8910309251     -1.2339783830
H       -0.0000001008     0.8905054703     -1.2318274341
H       -1.3019941193     -0.8404722712     0.9009715198
H       -2.2613090872     0.0010841360     -0.4052635248
H       -1.3016198526     0.8372373726     0.8965694938
--------------------------------------------------------------

             Standard Nuclear Orientation (Angstroms)
    I     Atom           X                Y                Z
 ----------------------------------------------------------------
    1      C       1.2594630012     0.0017320561     0.2922737337
    2      C      -0.0000001307     0.0013643851    -0.5622484412
    3      H       1.3019931522    -0.8404709531     0.9009711215
    4      H       1.3016188290     0.8372357572     0.8965690117
    5      H       2.2613120762     0.0010835627    -0.4052649227
    6      C      -1.2594638861     0.0017320753     0.2922728442
    7      H       0.0000000574    -0.8910309251    -1.2339783830
    8      H      -0.0000001008     0.8905054703    -1.2318274341
    9      H      -1.3019941193    -0.8404722712     0.9009715198
   10      H      -2.2613090872     0.0010841360    -0.4052635248
   11      H      -1.3016198526     0.8372373726     0.8965694938
 ----------------------------------------------------------------

    7    -119.0777773032      4.20E-06 Convergence criterion met
    5    -119.1211769072      1.00E-05 Convergence criterion met
 Total energy in the final basis set = -119.12117691

                    Orbital Energies (a.u.)
 --------------------------------------------------------------

 Alpha MOs
 -- Occupied --
-10.2796 -10.2673 -10.2673  -0.8834  -0.7781  -0.6798  -0.5526  -0.5065
 -0.4852  -0.4796  -0.4167  -0.4112  -0.4051

                    Cartesian Multipole Moments
 -----------------------------------------------------------------
    Charge (ESU x 10^10)
                 0.0000
    Dipole Moment (Debye)
         X      -0.0000      Y       0.0094      Z       0.1413
       Tot       0.1416
    Quadrupole Moments (Debye-Ang)
        XX     -22.7039     XY      -0.0000     YY     -21.4153
        XZ       0.0000     YZ       0.0012     ZZ     -21.7301

 Total job time:  43.97s(wall), 121.69s(cpu)
        *  Thank you very much for using Q-Chem.  Have a nice day.  *
