 Q-Chem 5.3 (devel), Q-Chem, Inc., Pleasanton, CA (2020)
 Q-Chem 5.3.0 for Intel X86 EM64T Linux

User input:
--------------------------------------------------------------
$rem
   JOBTYPE  sp
   EXCHANGE   omegaB97X-D
   BASIS   6-311+G(2df,2pd)
   UNRESTRICTED   False
   max_scf_cycles   250
   geom_opt_max_cycles   1500
   basis2 6-31G*
   scf_algorithm rca_diis
   SYM_IGNORE  TRUE
   print_input   true
   geom_opt_dmax   80
   pop_mulliken false
   XC_GRID 000075000302
$end

$molecule
0 1
C       1.2555680061     0.0014481687     0.3086666569
C       -0.0000001951     0.0072065951     -0.5497281402
H       1.2922511262     -0.8177510339     0.9052710875
H       1.3074978037     0.8177582867     0.8875157973
H       2.3092429825     -0.0148061036     -0.4282656659
C       -1.2555693318     0.0014479265     0.3086653306
H       0.0000000948     -0.8894279086     -1.2360219453
H       -0.0000001284     0.9089230811     -1.2195827253
H       -1.2922527790     -0.8177536069     0.9052712445
H       -2.3092385095     -0.0148048845     -0.4282635729
H       -1.3074991302     0.8177601452     0.8875169516
$end
--------------------------------------------------------------

             Standard Nuclear Orientation (Angstroms)
    I     Atom           X                Y                Z
 ----------------------------------------------------------------
    1      C       1.2555680061     0.0014481687     0.3086666569
    2      C      -0.0000001951     0.0072065951    -0.5497281402
    3      H       1.2922511262    -0.8177510339     0.9052710875
    4      H       1.3074978037     0.8177582867     0.8875157973
    5      H       2.3092429825    -0.0148061036    -0.4282656659
    6      C      -1.2555693318     0.0014479265     0.3086653306
    7      H       0.0000000948    -0.8894279086    -1.2360219453
    8      H      -0.0000001284     0.9089230811    -1.2195827253
    9      H      -1.2922527790    -0.8177536069     0.9052712445
   10      H      -2.3092385095    -0.0148048845    -0.4282635729
   11      H      -1.3074991302     0.8177601452     0.8875169516
 ----------------------------------------------------------------

    7    -119.0485422303      4.27E-06 Convergence criterion met
    5    -119.0928239414      9.76E-06 Convergence criterion met
 Total energy in the final basis set = -119.09282394

                    Orbital Energies (a.u.)
 --------------------------------------------------------------

 Alpha MOs
 -- Occupied --
-10.2825 -10.2680 -10.2680  -0.8861  -0.7816  -0.6824  -0.5572  -0.4993
 -0.4889  -0.4865  -0.4154  -0.4130  -0.3984

                    Cartesian Multipole Moments
 -----------------------------------------------------------------
    Charge (ESU x 10^10)
                 0.0000
    Dipole Moment (Debye)
         X      -0.0000      Y       0.0169      Z       0.2575
       Tot       0.2580
    Quadrupole Moments (Debye-Ang)
        XX     -23.0497     XY      -0.0000     YY     -21.4426
        XZ       0.0000     YZ       0.0074     ZZ     -21.6504

 Total job time:  24.91s(wall), 67.13s(cpu)
        *  Thank you very much for using Q-Chem.  Have a nice day.  *
