 Q-Chem 5.3 (devel), Q-Chem, Inc., Pleasanton, CA (2020)
 Q-Chem 5.3.0 for Intel X86 EM64T Linux

User input:
--------------------------------------------------------------
$rem
   JOBTYPE  sp
   EXCHANGE   omegaB97X-D
   BASIS   6-311+G(2df,2pd)
   UNRESTRICTED   False
   max_scf_cycles   250
   geom_opt_max_cycles   1500
   basis2 6-31G*
   scf_algorithm rca_diis
   SYM_IGNORE  TRUE
   print_input   true
   geom_opt_dmax   80
   pop_mulliken false
   XC_GRID 000075000302
$end

$molecule
0 1
C       1.2665678746     -0.0002091212     0.2549098170
C       -0.0000000727     0.0006030123     -0.5995456905
H       1.3039789740     -0.8781640630     0.8977127295
H       1.3059401560     0.8788010181     0.8965346384
H       2.1725449415     -0.0017137520     -0.3715036049
C       -1.2665680592     -0.0002091858     0.2549099119
H       -0.0000000806     -0.8146524672     -1.2082451399
H       -0.0000001570     0.8166212435     -1.2064710121
H       -1.3039790384     -0.8781631963     0.8977121393
H       -2.1725443522     -0.0017130891     -0.3715029899
H       -1.3059402467     0.8788002668     0.8965342203
$end
--------------------------------------------------------------

             Standard Nuclear Orientation (Angstroms)
    I     Atom           X                Y                Z
 ----------------------------------------------------------------
    1      C       1.2665678746    -0.0002091212     0.2549098170
    2      C      -0.0000000727     0.0006030123    -0.5995456905
    3      H       1.3039789740    -0.8781640630     0.8977127295
    4      H       1.3059401560     0.8788010181     0.8965346384
    5      H       2.1725449415    -0.0017137520    -0.3715036049
    6      C      -1.2665680592    -0.0002091858     0.2549099119
    7      H      -0.0000000806    -0.8146524672    -1.2082451399
    8      H      -0.0000001570     0.8166212435    -1.2064710121
    9      H      -1.3039790384    -0.8781631963     0.8977121393
   10      H      -2.1725443522    -0.0017130891    -0.3715029899
   11      H      -1.3059402467     0.8788002668     0.8965342203
 ----------------------------------------------------------------

    7    -119.0940371497      5.26E-06 Convergence criterion met
    5    -119.1380553264      7.71E-06 Convergence criterion met
 Total energy in the final basis set = -119.13805533

                    Orbital Energies (a.u.)
 --------------------------------------------------------------

 Alpha MOs
 -- Occupied --
-10.2645 -10.2645 -10.2572  -0.8849  -0.7750  -0.6892  -0.5530  -0.5217
 -0.4816  -0.4634  -0.4211  -0.4164  -0.4149

                    Cartesian Multipole Moments
 -----------------------------------------------------------------
    Charge (ESU x 10^10)
                -0.0000
    Dipole Moment (Debye)
         X      -0.0000      Y       0.0001      Z      -0.1639
       Tot       0.1639
    Quadrupole Moments (Debye-Ang)
        XX     -22.2198     XY      -0.0000     YY     -21.2600
        XZ      -0.0000     YZ       0.0000     ZZ     -21.6005

 Total job time:  26.30s(wall), 69.99s(cpu)
        *  Thank you very much for using Q-Chem.  Have a nice day.  *
