 Q-Chem 5.3 (devel), Q-Chem, Inc., Pleasanton, CA (2020)
 Q-Chem 5.3.0 for Intel X86 EM64T Linux

User input:
--------------------------------------------------------------
$rem
   JOBTYPE  sp
   EXCHANGE   omegaB97X-D
   BASIS   6-311+G(2df,2pd)
   UNRESTRICTED   False
   max_scf_cycles   250
   geom_opt_max_cycles   1500
   basis2 6-31G*
   scf_algorithm rca_diis
   SYM_IGNORE  TRUE
   print_input   true
   geom_opt_dmax   80
   pop_mulliken false
   XC_GRID 000075000302
$end

$molecule
0 1
C       1.2264231332     -0.0030740851     0.2080138855
C       -0.1028602387     0.0005594320     -0.5941669926
H       1.3171848936     -0.8762176060     0.8620380329
H       1.2831638745     0.8256232921     0.9207706038
H       2.1632469054     0.0232905548     -0.3525040589
C       -1.2981474600     0.0059428438     0.3046255111
H       0.0670696458     -0.8728981449     -1.2281641091
H       0.0851924947     0.8689505646     -1.2300047889
H       -1.2746931156     -0.8816350549     0.9352260952
H       -2.1557872582     -0.0206005005     -0.3658107441
H       -1.3107929353     0.9300593700     0.8810215840
$end
--------------------------------------------------------------

             Standard Nuclear Orientation (Angstroms)
    I     Atom           X                Y                Z
 ----------------------------------------------------------------
    1      C       1.2264231332    -0.0030740851     0.2080138855
    2      C      -0.1028602387     0.0005594320    -0.5941669926
    3      H       1.3171848936    -0.8762176060     0.8620380329
    4      H       1.2831638745     0.8256232921     0.9207706038
    5      H       2.1632469054     0.0232905548    -0.3525040589
    6      C      -1.2981474600     0.0059428438     0.3046255111
    7      H       0.0670696458    -0.8728981449    -1.2281641091
    8      H       0.0851924947     0.8689505646    -1.2300047889
    9      H      -1.2746931156    -0.8816350549     0.9352260952
   10      H      -2.1557872582    -0.0206005005    -0.3658107441
   11      H      -1.3107929353     0.9300593700     0.8810215840
 ----------------------------------------------------------------

    7    -119.0899491729      5.13E-06 Convergence criterion met
    5    -119.1333725747      9.61E-06 Convergence criterion met
 Total energy in the final basis set = -119.13337257

                    Orbital Energies (a.u.)
 --------------------------------------------------------------

 Alpha MOs
 -- Occupied --
-10.2749 -10.2689 -10.2620  -0.8842  -0.7786  -0.6786  -0.5483  -0.5244
 -0.4874  -0.4642  -0.4267  -0.4045  -0.4017

                    Cartesian Multipole Moments
 -----------------------------------------------------------------
    Charge (ESU x 10^10)
                 0.0000
    Dipole Moment (Debye)
         X      -0.0239      Y      -0.0005      Z      -0.0615
       Tot       0.0660
    Quadrupole Moments (Debye-Ang)
        XX     -22.1934     XY      -0.0186     YY     -21.3894
        XZ      -0.2224     YZ      -0.0002     ZZ     -21.9541

 Total job time:  24.95s(wall), 67.71s(cpu)
        *  Thank you very much for using Q-Chem.  Have a nice day.  *
