 Q-Chem 5.2 (devel), Q-Chem, Inc., Pleasanton, CA (2019)
 Q-Chem 5.2.2 for Intel X86 EM64T Linux

User input:
--------------------------------------------------------------
$rem
   JOBTYPE  sp
   EXCHANGE   omegaB97X-D
   BASIS   6-311+G(2df,2pd)
   max_scf_cycles   250
   geom_opt_max_cycles   1500
   basis2 6-31G*
   scf_algorithm rca_diis
   SYM_IGNORE  TRUE
   print_input   true
   geom_opt_dmax   80
   pop_mulliken false
   XC_GRID 000075000302
$end

$molecule
0 1
C       1.2501739923     -0.0212135662     0.2341456660
C       0.0000003272     -0.0256339748     -0.6724698405
H       1.2338363530     -0.9463732338     0.8064360693
H       1.3786406752     0.9220649385     0.7693832476
H       2.1870623711     0.0809608486     -0.3237585909
C       -1.2501733791     -0.0212157360     0.2341460403
H       0.0000015758     -1.0604907526     -0.9919238500
H       -0.0000017709     1.0152375103     -0.9669722761
H       -1.2338252533     -0.9463748371     0.8064360232
H       -2.1870621800     0.0809746379     -0.3237549766
H       -1.3786527719     0.9220648310     0.7693775066
--------------------------------------------------------------

             Standard Nuclear Orientation (Angstroms)
    I     Atom           X                Y                Z
 ----------------------------------------------------------------
    1      C       1.2501739923    -0.0212135662     0.2341456660
    2      C       0.0000003272    -0.0256339748    -0.6724698405
    3      H       1.2338363530    -0.9463732338     0.8064360693
    4      H       1.3786406752     0.9220649385     0.7693832476
    5      H       2.1870623711     0.0809608486    -0.3237585909
    6      C      -1.2501733791    -0.0212157360     0.2341460403
    7      H       0.0000015758    -1.0604907526    -0.9919238500
    8      H      -0.0000017709     1.0152375103    -0.9669722761
    9      H      -1.2338252533    -0.9463748371     0.8064360232
   10      H      -2.1870621800     0.0809746379    -0.3237549766
   11      H      -1.3786527719     0.9220648310     0.7693775066
 ----------------------------------------------------------------

    7    -119.0480869918      7.22E-06 Convergence criterion met
    5    -119.0933947914      8.39E-06 Convergence criterion met
 Total energy in the final basis set = -119.09339479

                    Orbital Energies (a.u.)
 --------------------------------------------------------------

 Alpha MOs
 -- Occupied --
-10.2783 -10.2645 -10.2645  -0.8881  -0.7770  -0.6701  -0.5918  -0.5068
 -0.4883  -0.4597  -0.4332  -0.4070  -0.3716

                    Cartesian Multipole Moments
 -----------------------------------------------------------------
    Charge (ESU x 10^10)
                -0.0000
    Dipole Moment (Debye)
         X      -0.0000      Y       0.1195      Z       0.0196
       Tot       0.1211
    Quadrupole Moments (Debye-Ang)
        XX     -22.3335     XY      -0.0001     YY     -20.0506
        XZ      -0.0000     YZ      -0.1978     ZZ     -23.8606

 Total job time:  44.68s(wall), 123.83s(cpu)
        *  Thank you very much for using Q-Chem.  Have a nice day.  *
