 Q-Chem 5.3 (devel), Q-Chem, Inc., Pleasanton, CA (2020)
 Q-Chem 5.3.0 for Intel X86 EM64T Linux

User input:
--------------------------------------------------------------
$rem
   JOBTYPE  sp
   EXCHANGE   omegaB97X-D
   BASIS   6-311+G(2df,2pd)
   UNRESTRICTED   False
   max_scf_cycles   250
   geom_opt_max_cycles   1500
   basis2 6-31G*
   scf_algorithm rca_diis
   SYM_IGNORE  TRUE
   print_input   true
   geom_opt_dmax   80
   pop_mulliken false
   XC_GRID 000075000302
$end

$molecule
0 1
C       1.2658779660     -0.0004029469     0.2504012779
C       -0.0000001462     0.0012658728     -0.6118262375
H       1.3026120772     -0.8756693273     0.8916527521
H       1.3065671095     0.8769241194     0.8893580148
H       2.1804120708     -0.0034442840     -0.3829373702
C       -1.2658783358     -0.0004030593     0.2504014680
H       -0.0000001603     -0.7551203255     -1.1737300631
H       -0.0000002503     0.7590392387     -1.1703474359
H       -1.3026122078     -0.8756675955     0.8916515713
H       -2.1804108935     -0.0034436409     -0.3829361391
H       -1.3065672903     0.8769226144     0.8893571806
$end
--------------------------------------------------------------

             Standard Nuclear Orientation (Angstroms)
    I     Atom           X                Y                Z
 ----------------------------------------------------------------
    1      C       1.2658779660    -0.0004029469     0.2504012779
    2      C      -0.0000001462     0.0012658728    -0.6118262375
    3      H       1.3026120772    -0.8756693273     0.8916527521
    4      H       1.3065671095     0.8769241194     0.8893580148
    5      H       2.1804120708    -0.0034442840    -0.3829373702
    6      C      -1.2658783358    -0.0004030593     0.2504014680
    7      H      -0.0000001603    -0.7551203255    -1.1737300631
    8      H      -0.0000002503     0.7590392387    -1.1703474359
    9      H      -1.3026122078    -0.8756675955     0.8916515713
   10      H      -2.1804108935    -0.0034436409    -0.3829361391
   11      H      -1.3065672903     0.8769226144     0.8893571806
 ----------------------------------------------------------------

    7    -119.0627167925      6.17E-06 Convergence criterion met
    5    -119.1087086697      6.92E-06 Convergence criterion met
 Total energy in the final basis set = -119.10870867

                    Orbital Energies (a.u.)
 --------------------------------------------------------------

 Alpha MOs
 -- Occupied --
-10.2644 -10.2644 -10.2393  -0.8905  -0.7733  -0.7016  -0.5619  -0.5193
 -0.4809  -0.4634  -0.4249  -0.4243  -0.4115

                    Cartesian Multipole Moments
 -----------------------------------------------------------------
    Charge (ESU x 10^10)
                -0.0000
    Dipole Moment (Debye)
         X      -0.0000      Y       0.0002      Z      -0.2224
       Tot       0.2224
    Quadrupole Moments (Debye-Ang)
        XX     -22.2455     XY      -0.0000     YY     -21.1627
        XZ      -0.0000     YZ      -0.0000     ZZ     -21.3627

 Total job time:  24.77s(wall), 67.03s(cpu)
        *  Thank you very much for using Q-Chem.  Have a nice day.  *
