 Q-Chem 5.3 (devel), Q-Chem, Inc., Pleasanton, CA (2020)
 Q-Chem 5.3.0 for Intel X86 EM64T Linux

User input:
--------------------------------------------------------------
$rem
   JOBTYPE  sp
   EXCHANGE   omegaB97X-D
   BASIS   6-311+G(2df,2pd)
   UNRESTRICTED   False
   max_scf_cycles   250
   geom_opt_max_cycles   1500
   basis2 6-31G*
   scf_algorithm rca_diis
   SYM_IGNORE  TRUE
   print_input   true
   geom_opt_dmax   80
   pop_mulliken false
   XC_GRID 000075000302
$end

$molecule
0 1
C       1.2409654477     -0.0023981552     0.2602599809
C       0.0000000152     0.0027251072     -0.5541204994
H       1.2999938770     -0.8812633977     0.9048829797
H       1.3099861002     0.8843840804     0.8931726741
H       2.1083756711     -0.0097191409     -0.4000687069
C       -1.2409653427     -0.0023980584     0.2602601224
H       -0.0000002401     -0.8657190683     -1.2172108505
H       -0.0000000555     0.8809869603     -1.2041175551
H       -1.2999937875     -0.8812632737     0.9048831273
H       -2.1083753675     -0.0097187146     -0.4000688426
H       -1.3099863786     0.8843843268     0.8931725889
$end
--------------------------------------------------------------

             Standard Nuclear Orientation (Angstroms)
    I     Atom           X                Y                Z
 ----------------------------------------------------------------
    1      C       1.2409654477    -0.0023981552     0.2602599809
    2      C       0.0000000152     0.0027251072    -0.5541204994
    3      H       1.2999938770    -0.8812633977     0.9048829797
    4      H       1.3099861002     0.8843840804     0.8931726741
    5      H       2.1083756711    -0.0097191409    -0.4000687069
    6      C      -1.2409653427    -0.0023980584     0.2602601224
    7      H      -0.0000002401    -0.8657190683    -1.2172108505
    8      H      -0.0000000555     0.8809869603    -1.2041175551
    9      H      -1.2999937875    -0.8812632737     0.9048831273
   10      H      -2.1083753675    -0.0097187146    -0.4000688426
   11      H      -1.3099863786     0.8843843268     0.8931725889
 ----------------------------------------------------------------

    7    -119.1004995876      4.55E-06 Convergence criterion met
    6    -119.1439128592      3.63E-06 Convergence criterion met
 Total energy in the final basis set = -119.14391286

                    Orbital Energies (a.u.)
 --------------------------------------------------------------

 Alpha MOs
 -- Occupied --
-10.2674 -10.2614 -10.2614  -0.8923  -0.7803  -0.6741  -0.5520  -0.5286
 -0.4895  -0.4643  -0.4183  -0.4168  -0.4034

                    Cartesian Multipole Moments
 -----------------------------------------------------------------
    Charge (ESU x 10^10)
                -0.0000
    Dipole Moment (Debye)
         X      -0.0000      Y       0.0030      Z      -0.1135
       Tot       0.1136
    Quadrupole Moments (Debye-Ang)
        XX     -22.3761     XY      -0.0000     YY     -21.2804
        XZ       0.0000     YZ      -0.0055     ZZ     -21.7961

 Total job time:  28.05s(wall), 75.95s(cpu)
        *  Thank you very much for using Q-Chem.  Have a nice day.  *
