 Q-Chem 5.2 (devel), Q-Chem, Inc., Pleasanton, CA (2019)
 Q-Chem 5.2.2 for Intel X86 EM64T Linux

User input:
--------------------------------------------------------------
$rem
   JOBTYPE  sp
   EXCHANGE   omegaB97X-D
   BASIS   6-311+G(2df,2pd)
   max_scf_cycles   250
   geom_opt_max_cycles   1500
   basis2 6-31G*
   scf_algorithm rca_diis
   SYM_IGNORE  TRUE
   print_input   true
   geom_opt_dmax   80
   pop_mulliken false
   XC_GRID 000075000302
$end

$molecule
0 1
C       1.2672482139     0.0063069671     0.2643091707
C       -0.0000000876     0.0069994346     -0.5731775944
H       1.3170760913     -0.8621232403     0.9258558921
H       1.2814418064     0.8676064012     0.9351234497
H       2.1560439476     -0.0200912053     -0.3648895109
C       -1.2672484078     0.0063077242     0.2643090311
H       -0.0000003204     -0.8114471962     -1.3005863986
H       0.0000003384     0.8210520787     -1.3059895036
H       -1.3170789867     -0.8621224755     0.9258557542
H       -2.1560437062     -0.0200938320     -0.3648900370
H       -1.2814389495     0.8676060095     0.9351247657
--------------------------------------------------------------

             Standard Nuclear Orientation (Angstroms)
    I     Atom           X                Y                Z
 ----------------------------------------------------------------
    1      C       1.2672482139     0.0063069671     0.2643091707
    2      C      -0.0000000876     0.0069994346    -0.5731775944
    3      H       1.3170760913    -0.8621232403     0.9258558921
    4      H       1.2814418064     0.8676064012     0.9351234497
    5      H       2.1560439476    -0.0200912053    -0.3648895109
    6      C      -1.2672484078     0.0063077242     0.2643090311
    7      H      -0.0000003204    -0.8114471962    -1.3005863986
    8      H       0.0000003384     0.8210520787    -1.3059895036
    9      H      -1.3170789867    -0.8621224755     0.9258557542
   10      H      -2.1560437062    -0.0200938320    -0.3648900370
   11      H      -1.2814389495     0.8676060095     0.9351247657
 ----------------------------------------------------------------

    7    -119.0994636272      4.62E-06 Convergence criterion met
    6    -119.1426254368      3.96E-06 Convergence criterion met
 Total energy in the final basis set = -119.14262544

                    Orbital Energies (a.u.)
 --------------------------------------------------------------

 Alpha MOs
 -- Occupied --
-10.2736 -10.2658 -10.2658  -0.8816  -0.7779  -0.6825  -0.5370  -0.5275
 -0.4886  -0.4590  -0.4299  -0.4191  -0.3952

                    Cartesian Multipole Moments
 -----------------------------------------------------------------
    Charge (ESU x 10^10)
                -0.0000
    Dipole Moment (Debye)
         X       0.0000      Y      -0.0331      Z      -0.0996
       Tot       0.1050
    Quadrupole Moments (Debye-Ang)
        XX     -22.1306     XY       0.0000     YY     -21.8104
        XZ      -0.0000     YZ       0.0510     ZZ     -21.3440

 Total job time:  48.27s(wall), 134.54s(cpu)
        *  Thank you very much for using Q-Chem.  Have a nice day.  *
