 Q-Chem 5.2 (devel), Q-Chem, Inc., Pleasanton, CA (2019)
 Q-Chem 5.2.2 for Intel X86 EM64T Linux

User input:
--------------------------------------------------------------
$rem
   JOBTYPE  sp
   EXCHANGE   omegaB97X-D
   BASIS   6-311+G(2df,2pd)
   max_scf_cycles   250
   geom_opt_max_cycles   1500
   basis2 6-31G*
   scf_algorithm rca_diis
   SYM_IGNORE  TRUE
   print_input   true
   geom_opt_dmax   80
   pop_mulliken false
   XC_GRID 000075000302
$end

$molecule
0 1
C       1.2664458819     -0.0442287420     0.2467470636
C       0.0000000788     0.0576862727     -0.5771614756
H       1.3401858498     -0.9044699862     0.9119629298
H       1.2138113425     0.8607792031     0.8588832421
H       2.1871109751     0.0472596192     -0.3299373007
C       -1.2664457369     -0.0442287377     0.2467470648
H       0.0000004635     -0.8615515533     -1.1679347737
H       -0.0000006013     0.8851842396     -1.2891706924
H       -1.3401856458     -0.9044698740     0.9119630512
H       -2.1871108198     0.0472607696     -0.3299371493
H       -1.2138118483     0.8607794551     0.8588830593
--------------------------------------------------------------

             Standard Nuclear Orientation (Angstroms)
    I     Atom           X                Y                Z
 ----------------------------------------------------------------
    1      C       1.2664458819    -0.0442287420     0.2467470636
    2      C       0.0000000788     0.0576862727    -0.5771614756
    3      H       1.3401858498    -0.9044699862     0.9119629298
    4      H       1.2138113425     0.8607792031     0.8588832421
    5      H       2.1871109751     0.0472596192    -0.3299373007
    6      C      -1.2664457369    -0.0442287377     0.2467470648
    7      H       0.0000004635    -0.8615515533    -1.1679347737
    8      H      -0.0000006013     0.8851842396    -1.2891706924
    9      H      -1.3401856458    -0.9044698740     0.9119630512
   10      H      -2.1871108198     0.0472607696    -0.3299371493
   11      H      -1.2138118483     0.8607794551     0.8588830593
 ----------------------------------------------------------------

    7    -119.0917122490      4.90E-06 Convergence criterion met
    6    -119.1351547000      4.09E-06 Convergence criterion met
 Total energy in the final basis set = -119.13515470

                    Orbital Energies (a.u.)
 --------------------------------------------------------------

 Alpha MOs
 -- Occupied --
-10.2729 -10.2654 -10.2653  -0.8860  -0.7789  -0.6767  -0.5503  -0.5288
 -0.4855  -0.4582  -0.4290  -0.4262  -0.3848

                    Cartesian Multipole Moments
 -----------------------------------------------------------------
    Charge (ESU x 10^10)
                 0.0000
    Dipole Moment (Debye)
         X      -0.0000      Y       0.0040      Z      -0.0891
       Tot       0.0892
    Quadrupole Moments (Debye-Ang)
        XX     -21.9684     XY      -0.0000     YY     -21.3220
        XZ      -0.0000     YZ      -0.6505     ZZ     -22.1395

 Total job time:  48.77s(wall), 135.97s(cpu)
        *  Thank you very much for using Q-Chem.  Have a nice day.  *
