 Q-Chem 5.3 (devel), Q-Chem, Inc., Pleasanton, CA (2020)
 Q-Chem 5.3.0 for Intel X86 EM64T Linux

User input:
--------------------------------------------------------------
$rem
   JOBTYPE  sp
   EXCHANGE   omegaB97X-D
   BASIS   6-311+G(2df,2pd)
   UNRESTRICTED   False
   max_scf_cycles   250
   geom_opt_max_cycles   1500
   basis2 6-31G*
   scf_algorithm rca_diis
   SYM_IGNORE  TRUE
   print_input   true
   geom_opt_dmax   80
   pop_mulliken false
   XC_GRID 000075000302
$end

$molecule
0 1
C       1.2541259123     0.0008458856     0.2724680377
C       -0.0039351222     0.0000765848     -0.5872355316
H       1.2885616635     -0.8550516041     0.9014578388
H       1.2930427975     0.8643944600     0.8943312512
H       2.2085744607     -0.0047371280     -0.3807395070
C       -1.2801464387     -0.0006379607     0.2463815951
H       0.0006249769     -0.8738151107     -1.2430089898
H       -0.0006519431     0.8739291930     -1.2430841954
H       -1.3219350303     -0.9060764003     0.9059910723
H       -2.1207851300     0.0041852414     -0.3389418936
H       -1.3174762073     0.8968875050     0.9134253411
$end
--------------------------------------------------------------

             Standard Nuclear Orientation (Angstroms)
    I     Atom           X                Y                Z
 ----------------------------------------------------------------
    1      C       1.2541259123     0.0008458856     0.2724680377
    2      C      -0.0039351222     0.0000765848    -0.5872355316
    3      H       1.2885616635    -0.8550516041     0.9014578388
    4      H       1.2930427975     0.8643944600     0.8943312512
    5      H       2.2085744607    -0.0047371280    -0.3807395070
    6      C      -1.2801464387    -0.0006379607     0.2463815951
    7      H       0.0006249769    -0.8738151107    -1.2430089898
    8      H      -0.0006519431     0.8739291930    -1.2430841954
    9      H      -1.3219350303    -0.9060764003     0.9059910723
   10      H      -2.1207851300     0.0041852414    -0.3389418936
   11      H      -1.3174762073     0.8968875050     0.9134253411
 ----------------------------------------------------------------

    7    -119.0956947467      4.69E-06 Convergence criterion met
    5    -119.1389102333      9.98E-06 Convergence criterion met
 Total energy in the final basis set = -119.13891023

                    Orbital Energies (a.u.)
 --------------------------------------------------------------

 Alpha MOs
 -- Occupied --
-10.2745 -10.2655 -10.2640  -0.8817  -0.7783  -0.6785  -0.5462  -0.5256
 -0.4819  -0.4640  -0.4218  -0.4142  -0.4074

                    Cartesian Multipole Moments
 -----------------------------------------------------------------
    Charge (ESU x 10^10)
                 0.0000
    Dipole Moment (Debye)
         X      -0.0824      Y       0.0008      Z      -0.0831
       Tot       0.1171
    Quadrupole Moments (Debye-Ang)
        XX     -22.1985     XY      -0.0055     YY     -21.3624
        XZ       0.1298     YZ       0.0007     ZZ     -21.8345

 Total job time:  24.80s(wall), 66.87s(cpu)
        *  Thank you very much for using Q-Chem.  Have a nice day.  *
