 Q-Chem 5.3 (devel), Q-Chem, Inc., Pleasanton, CA (2020)
 Q-Chem 5.3.0 for Intel X86 EM64T Linux

User input:
--------------------------------------------------------------
$rem
   JOBTYPE  sp
   EXCHANGE   omegaB97X-D
   BASIS   6-311+G(2df,2pd)
   UNRESTRICTED   False
   max_scf_cycles   250
   geom_opt_max_cycles   1500
   basis2 6-31G*
   scf_algorithm rca_diis
   SYM_IGNORE  TRUE
   print_input   true
   geom_opt_dmax   80
   pop_mulliken false
   XC_GRID 000075000302
$end

$molecule
0 1
C       1.2674911150     0.0420941713     0.2583106055
C       -0.0000009530     0.0423197787     -0.5881199374
H       1.3043449540     -0.9198864125     0.9584524331
H       1.3057276785     0.8449796249     0.8492224128
H       2.1608272305     0.0276447713     -0.3581470830
C       -1.2674975180     0.0420946153     0.2583040742
H       0.0000000926     -0.8892072107     -1.2854901297
H       -0.0000001142     0.8572272790     -1.2010315760
H       -1.3043536412     -0.9199014704     0.9584554784
H       -2.1608054538     0.0276489507     -0.3581367823
H       -1.3057334509     0.8449865684     0.8492255232
$end
--------------------------------------------------------------

             Standard Nuclear Orientation (Angstroms)
    I     Atom           X                Y                Z
 ----------------------------------------------------------------
    1      C       1.2674911150     0.0420941713     0.2583106055
    2      C      -0.0000009530     0.0423197787    -0.5881199374
    3      H       1.3043449540    -0.9198864125     0.9584524331
    4      H       1.3057276785     0.8449796249     0.8492224128
    5      H       2.1608272305     0.0276447713    -0.3581470830
    6      C      -1.2674975180     0.0420946153     0.2583040742
    7      H       0.0000000926    -0.8892072107    -1.2854901297
    8      H      -0.0000001142     0.8572272790    -1.2010315760
    9      H      -1.3043536412    -0.9199014704     0.9584554784
   10      H      -2.1608054538     0.0276489507    -0.3581367823
   11      H      -1.3057334509     0.8449865684     0.8492255232
 ----------------------------------------------------------------

    7    -119.0731913521      4.75E-06 Convergence criterion met
    5    -119.1173273552      9.96E-06 Convergence criterion met
 Total energy in the final basis set = -119.11732736

                    Orbital Energies (a.u.)
 --------------------------------------------------------------

 Alpha MOs
 -- Occupied --
-10.2742 -10.2642 -10.2642  -0.8837  -0.7807  -0.6820  -0.5470  -0.5258
 -0.4935  -0.4531  -0.4194  -0.4174  -0.4062

                    Cartesian Multipole Moments
 -----------------------------------------------------------------
    Charge (ESU x 10^10)
                -0.0000
    Dipole Moment (Debye)
         X      -0.0000      Y       0.3043      Z      -0.1118
       Tot       0.3242
    Quadrupole Moments (Debye-Ang)
        XX     -22.1358     XY      -0.0000     YY     -21.3383
        XZ       0.0000     YZ      -0.0032     ZZ     -21.8826

 Total job time:  23.53s(wall), 64.40s(cpu)
        *  Thank you very much for using Q-Chem.  Have a nice day.  *
