 Q-Chem 5.2 (devel), Q-Chem, Inc., Pleasanton, CA (2019)
 Q-Chem 5.2.2 for Intel X86 EM64T Linux

User input:
--------------------------------------------------------------
$rem
   JOBTYPE  sp
   EXCHANGE   omegaB97X-D
   BASIS   6-311+G(2df,2pd)
   max_scf_cycles   250
   geom_opt_max_cycles   1500
   basis2 6-31G*
   scf_algorithm rca_diis
   SYM_IGNORE  TRUE
   print_input   true
   geom_opt_dmax   80
   pop_mulliken false
   XC_GRID 000075000302
$end

$molecule
0 1
C       1.2687827683     0.0139375489     0.2465037653
C       0.0000000051     0.0132262647     -0.6066230034
H       1.3353578730     -0.8561467990     0.9054982061
H       1.2622807882     0.8685365840     0.9252259259
H       2.1535879940     -0.0435041221     -0.3870660724
C       -1.2687828230     0.0139377606     0.2465037448
H       -0.0000001475     -0.8946474093     -1.2118515781
H       -0.0000000479     0.9157751375     -1.2208038362
H       -1.3353584364     -0.8561467309     0.9054979755
H       -2.1535879759     -0.0435042946     -0.3870660937
H       -1.2622800585     0.8685367261     0.9252259851
--------------------------------------------------------------

             Standard Nuclear Orientation (Angstroms)
    I     Atom           X                Y                Z
 ----------------------------------------------------------------
    1      C       1.2687827683     0.0139375489     0.2465037653
    2      C       0.0000000051     0.0132262647    -0.6066230034
    3      H       1.3353578730    -0.8561467990     0.9054982061
    4      H       1.2622807882     0.8685365840     0.9252259259
    5      H       2.1535879940    -0.0435041221    -0.3870660724
    6      C      -1.2687828230     0.0139377606     0.2465037448
    7      H      -0.0000001475    -0.8946474093    -1.2118515781
    8      H      -0.0000000479     0.9157751375    -1.2208038362
    9      H      -1.3353584364    -0.8561467309     0.9054979755
   10      H      -2.1535879759    -0.0435042946    -0.3870660937
   11      H      -1.2622800585     0.8685367261     0.9252259851
 ----------------------------------------------------------------

    7    -119.0995822779      4.69E-06 Convergence criterion met
    5    -119.1426252557      9.68E-06 Convergence criterion met
 Total energy in the final basis set = -119.14262526

                    Orbital Energies (a.u.)
 --------------------------------------------------------------

 Alpha MOs
 -- Occupied --
-10.2752 -10.2648 -10.2648  -0.8809  -0.7766  -0.6768  -0.5496  -0.5214
 -0.4892  -0.4593  -0.4168  -0.4137  -0.4096

                    Cartesian Multipole Moments
 -----------------------------------------------------------------
    Charge (ESU x 10^10)
                -0.0000
    Dipole Moment (Debye)
         X       0.0000      Y      -0.0680      Z      -0.0447
       Tot       0.0814
    Quadrupole Moments (Debye-Ang)
        XX     -22.3375     XY       0.0000     YY     -21.4048
        XZ       0.0000     YZ       0.1162     ZZ     -21.7810

 Total job time:  44.10s(wall), 122.51s(cpu)
        *  Thank you very much for using Q-Chem.  Have a nice day.  *
