 Q-Chem 5.3 (devel), Q-Chem, Inc., Pleasanton, CA (2020)
 Q-Chem 5.3.0 for Intel X86 EM64T Linux

User input:
--------------------------------------------------------------
$rem
   JOBTYPE  sp
   EXCHANGE   omegaB97X-D
   BASIS   6-311+G(2df,2pd)
   UNRESTRICTED   False
   max_scf_cycles   250
   geom_opt_max_cycles   1500
   basis2 6-31G*
   scf_algorithm rca_diis
   SYM_IGNORE  TRUE
   print_input   true
   geom_opt_dmax   80
   pop_mulliken false
   XC_GRID 000075000302
$end

$molecule
0 1
C       1.3243021116     -0.0443053552     0.1671474378
C       0.0411202418     0.0062656534     -0.5893638116
H       1.2938282326     -0.9475593745     0.7799737238
H       1.1471418443     0.7764625016     0.8676764283
H       2.3234786087     0.0715018641     -0.2484080889
C       -1.1998576179     0.0520024338     0.3509346716
H       -0.1815612469     -0.8528207396     -1.2266550514
H       -0.0291108474     0.8868456251     -1.2323282207
H       -1.2876440710     -0.8057789468     1.0206381481
H       -1.9463153266     -0.1021342764     -0.4319096684
H       -1.4853819898     0.9595212804     0.8833394502
$end
--------------------------------------------------------------

             Standard Nuclear Orientation (Angstroms)
    I     Atom           X                Y                Z
 ----------------------------------------------------------------
    1      C       1.3243021116    -0.0443053552     0.1671474378
    2      C       0.0411202418     0.0062656534    -0.5893638116
    3      H       1.2938282326    -0.9475593745     0.7799737238
    4      H       1.1471418443     0.7764625016     0.8676764283
    5      H       2.3234786087     0.0715018641    -0.2484080889
    6      C      -1.1998576179     0.0520024338     0.3509346716
    7      H      -0.1815612469    -0.8528207396    -1.2266550514
    8      H      -0.0291108474     0.8868456251    -1.2323282207
    9      H      -1.2876440710    -0.8057789468     1.0206381481
   10      H      -1.9463153266    -0.1021342764    -0.4319096684
   11      H      -1.4853819898     0.9595212804     0.8833394502
 ----------------------------------------------------------------

    7    -119.0823556751      4.83E-06 Convergence criterion met
    6    -119.1260244065      4.15E-06 Convergence criterion met
 Total energy in the final basis set = -119.12602441

                    Orbital Energies (a.u.)
 --------------------------------------------------------------

 Alpha MOs
 -- Occupied --
-10.2781 -10.2674 -10.2626  -0.8862  -0.7795  -0.6781  -0.5485  -0.5306
 -0.4835  -0.4651  -0.4172  -0.4069  -0.4050

                    Cartesian Multipole Moments
 -----------------------------------------------------------------
    Charge (ESU x 10^10)
                 0.0000
    Dipole Moment (Debye)
         X      -0.0937      Y       0.0175      Z      -0.0907
       Tot       0.1316
    Quadrupole Moments (Debye-Ang)
        XX     -22.1026     XY       0.0075     YY     -21.3895
        XZ      -0.0698     YZ      -0.0528     ZZ     -22.0031

 Total job time:  27.27s(wall), 74.33s(cpu)
        *  Thank you very much for using Q-Chem.  Have a nice day.  *
