 Q-Chem 5.2 (devel), Q-Chem, Inc., Pleasanton, CA (2019)
 Q-Chem 5.2.2 for Intel X86 EM64T Linux

User input:
--------------------------------------------------------------
$rem
   JOBTYPE  sp
   EXCHANGE   omegaB97X-D
   BASIS   6-311+G(2df,2pd)
   max_scf_cycles   250
   geom_opt_max_cycles   1500
   basis2 6-31G*
   scf_algorithm rca_diis
   SYM_IGNORE  TRUE
   print_input   true
   geom_opt_dmax   80
   pop_mulliken false
   XC_GRID 000075000302
$end

$molecule
0 1
C       1.2409194303     -0.0006112432     0.2852549963
C       -0.0078704464     -0.0000027406     -0.5873385801
H       1.2759604651     -0.8375037448     0.8907761832
H       1.2764748500     0.8398387092     0.8931623567
H       2.2527152657     -0.0007767198     -0.4012255558
C       -1.2929569670     0.0006043080     0.2330870831
H       -0.0001923391     -0.8738547080     -1.2431279674
H       0.0001371640     0.8738686887     -1.2431290644
H       -1.3343012679     -0.9233367889     0.9167869216
H       -2.0771352823     0.0007443812     -0.3176261511
H       -1.3337509331     0.9210305242     0.9144247970
--------------------------------------------------------------

             Standard Nuclear Orientation (Angstroms)
    I     Atom           X                Y                Z
 ----------------------------------------------------------------
    1      C       1.2409194303    -0.0006112432     0.2852549963
    2      C      -0.0078704464    -0.0000027406    -0.5873385801
    3      H       1.2759604651    -0.8375037448     0.8907761832
    4      H       1.2764748500     0.8398387092     0.8931623567
    5      H       2.2527152657    -0.0007767198    -0.4012255558
    6      C      -1.2929569670     0.0006043080     0.2330870831
    7      H      -0.0001923391    -0.8738547080    -1.2431279674
    8      H       0.0001371640     0.8738686887    -1.2431290644
    9      H      -1.3343012679    -0.9233367889     0.9167869216
   10      H      -2.0771352823     0.0007443812    -0.3176261511
   11      H      -1.3337509331     0.9210305242     0.9144247970
 ----------------------------------------------------------------

    7    -119.0724759777      5.22E-06 Convergence criterion met
    5    -119.1166470550      9.66E-06 Convergence criterion met
 Total energy in the final basis set = -119.11664705

                    Orbital Energies (a.u.)
 --------------------------------------------------------------

 Alpha MOs
 -- Occupied --
-10.2750 -10.2658 -10.2629  -0.8831  -0.7820  -0.6807  -0.5476  -0.5293
 -0.4801  -0.4652  -0.4249  -0.4099  -0.4070

                    Cartesian Multipole Moments
 -----------------------------------------------------------------
    Charge (ESU x 10^10)
                 0.0000
    Dipole Moment (Debye)
         X      -0.1644      Y       0.0011      Z      -0.0761
       Tot       0.1811
    Quadrupole Moments (Debye-Ang)
        XX     -22.2914     XY      -0.0085     YY     -21.3602
        XZ       0.2573     YZ       0.0006     ZZ     -21.8093

 Total job time:  43.54s(wall), 120.79s(cpu)
        *  Thank you very much for using Q-Chem.  Have a nice day.  *
