 Q-Chem 5.3 (devel), Q-Chem, Inc., Pleasanton, CA (2020)
 Q-Chem 5.3.0 for Intel X86 EM64T Linux

User input:
--------------------------------------------------------------
$rem
   JOBTYPE  sp
   EXCHANGE   omegaB97X-D
   BASIS   6-311+G(2df,2pd)
   UNRESTRICTED   False
   max_scf_cycles   250
   geom_opt_max_cycles   1500
   basis2 6-31G*
   scf_algorithm rca_diis
   SYM_IGNORE  TRUE
   print_input   true
   geom_opt_dmax   80
   pop_mulliken false
   XC_GRID 000075000302
$end

$molecule
0 1
C       1.4147019197     0.0177104222     0.2613055213
C       -0.0000001341     -0.0159579241     -0.7891039795
H       1.3255897828     -0.8746004036     0.8878108973
H       1.2717787705     0.8557961463     0.9483746836
H       2.4476026858     0.0501006480     -0.0922460590
C       -1.4147026858     0.0177098051     0.2613047201
H       0.0000013305     -0.9170773985     -1.4063365757
H       -0.0000000955     0.8350230276     -1.4740039660
H       -1.3255903843     -0.8746010119     0.8878100898
H       -2.4476039965     0.0501027503     -0.0922448754
H       -1.2717772536     0.8557946046     0.9483745624
$end
--------------------------------------------------------------

             Standard Nuclear Orientation (Angstroms)
    I     Atom           X                Y                Z
 ----------------------------------------------------------------
    1      C       1.4147019197     0.0177104222     0.2613055213
    2      C      -0.0000001341    -0.0159579241    -0.7891039795
    3      H       1.3255897828    -0.8746004036     0.8878108973
    4      H       1.2717787705     0.8557961463     0.9483746836
    5      H       2.4476026858     0.0501006480    -0.0922460590
    6      C      -1.4147026858     0.0177098051     0.2613047201
    7      H       0.0000013305    -0.9170773985    -1.4063365757
    8      H      -0.0000000955     0.8350230276    -1.4740039660
    9      H      -1.3255903843    -0.8746010119     0.8878100898
   10      H      -2.4476039965     0.0501027503    -0.0922448754
   11      H      -1.2717772536     0.8557946046     0.9483745624
 ----------------------------------------------------------------

    7    -119.0526605025      4.02E-06 Convergence criterion met
    5    -119.0953307926      7.83E-06 Convergence criterion met
 Total energy in the final basis set = -119.09533079

                    Orbital Energies (a.u.)
 --------------------------------------------------------------

 Alpha MOs
 -- Occupied --
-10.3115 -10.2839 -10.2838  -0.8320  -0.7674  -0.6989  -0.5186  -0.5083
 -0.4628  -0.4595  -0.4294  -0.4071  -0.4062

                    Cartesian Multipole Moments
 -----------------------------------------------------------------
    Charge (ESU x 10^10)
                -0.0000
    Dipole Moment (Debye)
         X       0.0000      Y      -0.0309      Z       0.0820
       Tot       0.0876
    Quadrupole Moments (Debye-Ang)
        XX     -21.1560     XY      -0.0000     YY     -21.8274
        XZ      -0.0000     YZ       0.0623     ZZ     -21.9077

 Total job time:  24.42s(wall), 65.80s(cpu)
        *  Thank you very much for using Q-Chem.  Have a nice day.  *
