 Q-Chem 5.3 (devel), Q-Chem, Inc., Pleasanton, CA (2020)
 Q-Chem 5.3.0 for Intel X86 EM64T Linux

User input:
--------------------------------------------------------------
$rem
   JOBTYPE  sp
   EXCHANGE   omegaB97X-D
   BASIS   6-311+G(2df,2pd)
   UNRESTRICTED   False
   max_scf_cycles   250
   geom_opt_max_cycles   1500
   basis2 6-31G*
   scf_algorithm rca_diis
   SYM_IGNORE  TRUE
   print_input   true
   geom_opt_dmax   80
   pop_mulliken false
   XC_GRID 000075000302
$end

$molecule
0 1
C       1.3563995167     -0.0071438646     0.3207451625
C       -0.1331123764     0.0007954381     -0.5867528935
H       1.4026620076     -0.8943294132     0.9601563787
H       1.3744350584     0.8469582395     1.0051918972
H       2.2831202829     0.0211133581     -0.2534612988
C       -1.1828373009     0.0076795272     0.1866500897
H       -0.3064218257     -0.8713162389     -1.2216873583
H       -0.2941955325     0.8739431043     -1.2234805000
H       -1.2082539320     -0.8657572791     0.8368363915
H       -2.0502742215     -0.0243357807     -0.4732364224
H       -1.2415217372     0.9123935754     0.7900835722
$end
--------------------------------------------------------------

             Standard Nuclear Orientation (Angstroms)
    I     Atom           X                Y                Z
 ----------------------------------------------------------------
    1      C       1.3563995167    -0.0071438646     0.3207451625
    2      C      -0.1331123764     0.0007954381    -0.5867528935
    3      H       1.4026620076    -0.8943294132     0.9601563787
    4      H       1.3744350584     0.8469582395     1.0051918972
    5      H       2.2831202829     0.0211133581    -0.2534612988
    6      C      -1.1828373009     0.0076795272     0.1866500897
    7      H      -0.3064218257    -0.8713162389    -1.2216873583
    8      H      -0.2941955325     0.8739431043    -1.2234805000
    9      H      -1.2082539320    -0.8657572791     0.8368363915
   10      H      -2.0502742215    -0.0243357807    -0.4732364224
   11      H      -1.2415217372     0.9123935754     0.7900835722
 ----------------------------------------------------------------

    7    -119.0336714214      6.68E-06 Convergence criterion met
    6    -119.0795394673      5.18E-06 Convergence criterion met
 Total energy in the final basis set = -119.07953947

                    Orbital Energies (a.u.)
 --------------------------------------------------------------

 Alpha MOs
 -- Occupied --
-10.2791 -10.2718 -10.2483  -0.9157  -0.7742  -0.6676  -0.5653  -0.5395
 -0.4796  -0.4642  -0.4474  -0.3948  -0.3817

                    Cartesian Multipole Moments
 -----------------------------------------------------------------
    Charge (ESU x 10^10)
                 0.0000
    Dipole Moment (Debye)
         X      -0.1757      Y      -0.0012      Z      -0.0748
       Tot       0.1909
    Quadrupole Moments (Debye-Ang)
        XX     -21.9624     XY      -0.0009     YY     -21.3377
        XZ       1.0361     YZ      -0.0078     ZZ     -21.9610

 Total job time:  25.68s(wall), 70.71s(cpu)
        *  Thank you very much for using Q-Chem.  Have a nice day.  *
