 Q-Chem 5.3 (devel), Q-Chem, Inc., Pleasanton, CA (2020)
 Q-Chem 5.3.0 for Intel X86 EM64T Linux

User input:
--------------------------------------------------------------
$rem
   JOBTYPE  sp
   EXCHANGE   omegaB97X-D
   BASIS   6-311+G(2df,2pd)
   UNRESTRICTED   False
   max_scf_cycles   250
   geom_opt_max_cycles   1500
   basis2 6-31G*
   scf_algorithm rca_diis
   SYM_IGNORE  TRUE
   print_input   true
   geom_opt_dmax   80
   pop_mulliken false
   XC_GRID 000075000302
$end

$molecule
0 1
C       1.2558975535     -0.0212802926     0.3094395674
C       0.0000000442     0.0335622053     -0.6113035932
H       1.3786084954     -0.8928852937     0.9519563477
H       1.4064979293     0.8915792512     0.8887789568
H       2.0792483261     -0.0311861304     -0.4096140483
C       -1.2558976027     -0.0212803490     0.3094396258
H       -0.0000002179     -0.8399012890     -1.2695748345
H       0.0000000585     0.9138842088     -1.2591982798
H       -1.3786084372     -0.8928853702     0.9519563563
H       -2.0792481915     -0.0311854154     -0.4096141717
H       -1.4064980185     0.8915791410     0.8887790924
$end
--------------------------------------------------------------

             Standard Nuclear Orientation (Angstroms)
    I     Atom           X                Y                Z
 ----------------------------------------------------------------
    1      C       1.2558975535    -0.0212802926     0.3094395674
    2      C       0.0000000442     0.0335622053    -0.6113035932
    3      H       1.3786084954    -0.8928852937     0.9519563477
    4      H       1.4064979293     0.8915792512     0.8887789568
    5      H       2.0792483261    -0.0311861304    -0.4096140483
    6      C      -1.2558976027    -0.0212803490     0.3094396258
    7      H      -0.0000002179    -0.8399012890    -1.2695748345
    8      H       0.0000000585     0.9138842088    -1.2591982798
    9      H      -1.3786084372    -0.8928853702     0.9519563563
   10      H      -2.0792481915    -0.0311854154    -0.4096141717
   11      H      -1.4064980185     0.8915791410     0.8887790924
 ----------------------------------------------------------------

    7    -119.0922357464      1.33E-06 Convergence criterion met
    5    -119.1350901667      8.52E-06 Convergence criterion met
 Total energy in the final basis set = -119.13509017

                    Orbital Energies (a.u.)
 --------------------------------------------------------------

 Alpha MOs
 -- Occupied --
-10.2820 -10.2650 -10.2650  -0.8730  -0.7738  -0.6807  -0.5412  -0.5101
 -0.4876  -0.4664  -0.4343  -0.4140  -0.3866

                    Cartesian Multipole Moments
 -----------------------------------------------------------------
    Charge (ESU x 10^10)
                 0.0000
    Dipole Moment (Debye)
         X       0.0000      Y       0.0123      Z      -0.1619
       Tot       0.1623
    Quadrupole Moments (Debye-Ang)
        XX     -22.8050     XY      -0.0000     YY     -21.1786
        XZ       0.0000     YZ      -0.2285     ZZ     -21.4438

 Total job time:  24.54s(wall), 66.40s(cpu)
        *  Thank you very much for using Q-Chem.  Have a nice day.  *
