 Q-Chem 5.2 (devel), Q-Chem, Inc., Pleasanton, CA (2019)
 Q-Chem 5.2.2 for Intel X86 EM64T Linux

User input:
--------------------------------------------------------------
$rem
   JOBTYPE  sp
   EXCHANGE   omegaB97X-D
   BASIS   6-311+G(2df,2pd)
   max_scf_cycles   250
   geom_opt_max_cycles   1500
   basis2 6-31G*
   scf_algorithm rca_diis
   SYM_IGNORE  TRUE
   print_input   true
   geom_opt_dmax   80
   pop_mulliken false
   XC_GRID 000075000302
$end

$molecule
0 1
C       1.3914615733     0.0057021651     0.2588398576
C       -0.0000000995     0.0028917036     -0.7566846020
H       1.2915689205     -0.8662499737     0.9112487332
H       1.3016413030     0.8667064760     0.9259452465
H       2.4086323268     -0.0048933755     -0.1380573154
C       -1.3914622139     0.0057019363     0.2588391265
H       0.0000010733     -0.8787705369     -1.4015035142
H       -0.0000000585     0.8733478974     -1.4167194035
H       -1.2915687547     -0.8662493543     0.9112490118
H       -2.4086335699     -0.0048925624     -0.1380564222
H       -1.3016405611     0.8667062905     0.9259443006
--------------------------------------------------------------

             Standard Nuclear Orientation (Angstroms)
    I     Atom           X                Y                Z
 ----------------------------------------------------------------
    1      C       1.3914615733     0.0057021651     0.2588398576
    2      C      -0.0000000995     0.0028917036    -0.7566846020
    3      H       1.2915689205    -0.8662499737     0.9112487332
    4      H       1.3016413030     0.8667064760     0.9259452465
    5      H       2.4086323268    -0.0048933755    -0.1380573154
    6      C      -1.3914622139     0.0057019363     0.2588391265
    7      H       0.0000010733    -0.8787705369    -1.4015035142
    8      H      -0.0000000585     0.8733478974    -1.4167194035
    9      H      -1.2915687547    -0.8662493543     0.9112490118
   10      H      -2.4086335699    -0.0048925624    -0.1380564222
   11      H      -1.3016405611     0.8667062905     0.9259443006
 ----------------------------------------------------------------

    7    -119.0660946928      4.10E-06 Convergence criterion met
    5    -119.1085852875      8.69E-06 Convergence criterion met
 Total energy in the final basis set = -119.10858529

                    Orbital Energies (a.u.)
 --------------------------------------------------------------

 Alpha MOs
 -- Occupied --
-10.3058 -10.2811 -10.2811  -0.8384  -0.7682  -0.6956  -0.5218  -0.5104
 -0.4641  -0.4593  -0.4258  -0.4119  -0.4088

                    Cartesian Multipole Moments
 -----------------------------------------------------------------
    Charge (ESU x 10^10)
                -0.0000
    Dipole Moment (Debye)
         X       0.0000      Y      -0.0161      Z       0.0586
       Tot       0.0607
    Quadrupole Moments (Debye-Ang)
        XX     -21.2726     XY      -0.0000     YY     -21.7783
        XZ      -0.0000     YZ       0.0348     ZZ     -21.9171

 Total job time:  44.02s(wall), 122.08s(cpu)
        *  Thank you very much for using Q-Chem.  Have a nice day.  *
