 Q-Chem 5.3 (devel), Q-Chem, Inc., Pleasanton, CA (2020)
 Q-Chem 5.3.0 for Intel X86 EM64T Linux

User input:
--------------------------------------------------------------
$rem
   JOBTYPE  sp
   EXCHANGE   omegaB97X-D
   BASIS   6-311+G(2df,2pd)
   UNRESTRICTED   False
   max_scf_cycles   250
   geom_opt_max_cycles   1500
   basis2 6-31G*
   scf_algorithm rca_diis
   SYM_IGNORE  TRUE
   print_input   true
   geom_opt_dmax   80
   pop_mulliken false
   XC_GRID 000075000302
$end

$molecule
0 1
C       1.2801463330     -0.0006326710     0.2463820169
C       0.0039351224     0.0000820162     -0.5872352354
H       1.3219348322     -0.9060805890     0.9059978906
H       1.3174763528     0.8968823155     0.9134183041
H       2.1207863145     0.0041880285     -0.3389424232
C       -1.2541258302     0.0008511938     0.2724684186
H       -0.0006250245     -0.8738173107     -1.2430143417
H       0.0006518775     0.8739272877     -1.2430785210
H       -1.2885615222     -0.8550557011     0.9014646638
H       -2.2085756427     -0.0047331203     -0.3807400843
H       -1.2930428733     0.8643892164     0.8943243304
$end
--------------------------------------------------------------

             Standard Nuclear Orientation (Angstroms)
    I     Atom           X                Y                Z
 ----------------------------------------------------------------
    1      C       1.2801463330    -0.0006326710     0.2463820169
    2      C       0.0039351224     0.0000820162    -0.5872352354
    3      H       1.3219348322    -0.9060805890     0.9059978906
    4      H       1.3174763528     0.8968823155     0.9134183041
    5      H       2.1207863145     0.0041880285    -0.3389424232
    6      C      -1.2541258302     0.0008511938     0.2724684186
    7      H      -0.0006250245    -0.8738173107    -1.2430143417
    8      H       0.0006518775     0.8739272877    -1.2430785210
    9      H      -1.2885615222    -0.8550557011     0.9014646638
   10      H      -2.2085756427    -0.0047331203    -0.3807400843
   11      H      -1.2930428733     0.8643892164     0.8943243304
 ----------------------------------------------------------------

    7    -119.0956948061      4.69E-06 Convergence criterion met
    5    -119.1389102849      9.98E-06 Convergence criterion met
 Total energy in the final basis set = -119.13891028

                    Orbital Energies (a.u.)
 --------------------------------------------------------------

 Alpha MOs
 -- Occupied --
-10.2745 -10.2655 -10.2640  -0.8817  -0.7783  -0.6785  -0.5462  -0.5256
 -0.4819  -0.4640  -0.4218  -0.4142  -0.4074

                    Cartesian Multipole Moments
 -----------------------------------------------------------------
    Charge (ESU x 10^10)
                 0.0000
    Dipole Moment (Debye)
         X       0.0824      Y       0.0008      Z      -0.0831
       Tot       0.1171
    Quadrupole Moments (Debye-Ang)
        XX     -22.1986     XY       0.0055     YY     -21.3624
        XZ      -0.1298     YZ       0.0007     ZZ     -21.8345

 Total job time:  25.11s(wall), 67.75s(cpu)
        *  Thank you very much for using Q-Chem.  Have a nice day.  *
