 Q-Chem 5.3 (devel), Q-Chem, Inc., Pleasanton, CA (2020)
 Q-Chem 5.3.0 for Intel X86 EM64T Linux

User input:
--------------------------------------------------------------
$rem
   JOBTYPE  sp
   EXCHANGE   omegaB97X-D
   BASIS   6-311+G(2df,2pd)
   UNRESTRICTED   False
   max_scf_cycles   250
   geom_opt_max_cycles   1500
   basis2 6-31G*
   scf_algorithm rca_diis
   SYM_IGNORE  TRUE
   print_input   true
   geom_opt_dmax   80
   pop_mulliken false
   XC_GRID 000075000302
$end

$molecule
0 1
C       1.2929818814     0.0025640578     0.2590200913
C       -0.0000000171     -0.0027098830     -0.6204850822
H       1.3099887680     -0.8799620170     0.9022790677
H       1.3002991417     0.8767743801     0.9134881635
H       2.2183048110     0.0093710952     -0.3184641174
C       -1.2929819933     0.0025639292     0.2590199513
H       0.0000002345     -0.8817318860     -1.2692913772
H       -0.0000000652     0.8669469642     -1.2818248581
H       -1.3099888611     -0.8799621344     0.9022789238
H       -2.2183050912     0.0093720311     -0.3184639604
H       -1.3002988694     0.8767741288     0.9134882167
$end
--------------------------------------------------------------

             Standard Nuclear Orientation (Angstroms)
    I     Atom           X                Y                Z
 ----------------------------------------------------------------
    1      C       1.2929818814     0.0025640578     0.2590200913
    2      C      -0.0000000171    -0.0027098830    -0.6204850822
    3      H       1.3099887680    -0.8799620170     0.9022790677
    4      H       1.3002991417     0.8767743801     0.9134881635
    5      H       2.2183048110     0.0093710952    -0.3184641174
    6      C      -1.2929819933     0.0025639292     0.2590199513
    7      H       0.0000002345    -0.8817318860    -1.2692913772
    8      H      -0.0000000652     0.8669469642    -1.2818248581
    9      H      -1.3099888611    -0.8799621344     0.9022789238
   10      H      -2.2183050912     0.0093720311    -0.3184639604
   11      H      -1.3002988694     0.8767741288     0.9134882167
 ----------------------------------------------------------------

    7    -119.1015837916      4.70E-06 Convergence criterion met
    5    -119.1441740637      9.97E-06 Convergence criterion met
 Total energy in the final basis set = -119.14417406

                    Orbital Energies (a.u.)
 --------------------------------------------------------------

 Alpha MOs
 -- Occupied --
-10.2809 -10.2685 -10.2685  -0.8709  -0.7745  -0.6813  -0.5400  -0.5204
 -0.4765  -0.4629  -0.4196  -0.4166  -0.4116

                    Cartesian Multipole Moments
 -----------------------------------------------------------------
    Charge (ESU x 10^10)
                 0.0000
    Dipole Moment (Debye)
         X       0.0000      Y      -0.0032      Z      -0.0572
       Tot       0.0573
    Quadrupole Moments (Debye-Ang)
        XX     -21.9647     XY      -0.0000     YY     -21.4440
        XZ      -0.0000     YZ       0.0065     ZZ     -21.8810

 Total job time:  24.80s(wall), 66.75s(cpu)
        *  Thank you very much for using Q-Chem.  Have a nice day.  *
