 Q-Chem 5.3 (devel), Q-Chem, Inc., Pleasanton, CA (2020)
 Q-Chem 5.3.0 for Intel X86 EM64T Linux

User input:
--------------------------------------------------------------
$rem
   JOBTYPE  sp
   EXCHANGE   omegaB97X-D
   BASIS   6-311+G(2df,2pd)
   UNRESTRICTED   False
   max_scf_cycles   250
   geom_opt_max_cycles   1500
   basis2 6-31G*
   scf_algorithm rca_diis
   SYM_IGNORE  TRUE
   print_input   true
   geom_opt_dmax   80
   pop_mulliken false
   XC_GRID 000075000302
$end

$molecule
0 1
C       1.2676345051     0.0631327917     0.2577507585
C       -0.0000014288     0.0634621932     -0.5885411230
H       1.3035758473     -0.9396110479     0.9856562629
H       1.3056800919     0.8272397809     0.8218091349
H       2.1588802633     0.0415215686     -0.3571385093
C       -1.2676440705     0.0631334025     0.2577410150
H       0.0000001939     -0.8969369089     -1.3066240776
H       -0.0000002193     0.8489146859     -1.1799598892
H       -1.3035887979     -0.9396337647     0.9856608005
H       -2.1588476073     0.0415276837     -0.3571229880
H       -1.3056888381     0.8272502809     0.8218136341
$end
--------------------------------------------------------------

             Standard Nuclear Orientation (Angstroms)
    I     Atom           X                Y                Z
 ----------------------------------------------------------------
    1      C       1.2676345051     0.0631327917     0.2577507585
    2      C      -0.0000014288     0.0634621932    -0.5885411230
    3      H       1.3035758473    -0.9396110479     0.9856562629
    4      H       1.3056800919     0.8272397809     0.8218091349
    5      H       2.1588802633     0.0415215686    -0.3571385093
    6      C      -1.2676440705     0.0631334025     0.2577410150
    7      H       0.0000001939    -0.8969369089    -1.3066240776
    8      H      -0.0000002193     0.8489146859    -1.1799598892
    9      H      -1.3035887979    -0.9396337647     0.9856608005
   10      H      -2.1588476073     0.0415276837    -0.3571229880
   11      H      -1.3056888381     0.8272502809     0.8218136341
 ----------------------------------------------------------------

    7    -119.0341609846      5.03E-06 Convergence criterion met
    5    -119.0799097950      9.80E-06 Convergence criterion met
 Total energy in the final basis set = -119.07990980

                    Orbital Energies (a.u.)
 --------------------------------------------------------------

 Alpha MOs
 -- Occupied --
-10.2742 -10.2636 -10.2636  -0.8867  -0.7850  -0.6873  -0.5486  -0.5272
 -0.5020  -0.4459  -0.4197  -0.4171  -0.4047

                    Cartesian Multipole Moments
 -----------------------------------------------------------------
    Charge (ESU x 10^10)
                -0.0000
    Dipole Moment (Debye)
         X      -0.0000      Y       0.4519      Z      -0.1381
       Tot       0.4725
    Quadrupole Moments (Debye-Ang)
        XX     -22.1083     XY      -0.0000     YY     -21.3096
        XZ       0.0001     YZ      -0.0046     ZZ     -21.9286

 Total job time:  24.19s(wall), 65.44s(cpu)
        *  Thank you very much for using Q-Chem.  Have a nice day.  *
