 Q-Chem 5.3 (devel), Q-Chem, Inc., Pleasanton, CA (2020)
 Q-Chem 5.3.0 for Intel X86 EM64T Linux

User input:
--------------------------------------------------------------
$rem
   JOBTYPE  sp
   EXCHANGE   omegaB97X-D
   BASIS   6-311+G(2df,2pd)
   UNRESTRICTED   False
   max_scf_cycles   250
   geom_opt_max_cycles   1500
   basis2 6-31G*
   scf_algorithm rca_diis
   SYM_IGNORE  TRUE
   print_input   true
   geom_opt_dmax   80
   pop_mulliken false
   XC_GRID 000075000302
$end

$molecule
0 1
C       1.2651342510     -0.0005811914     0.2459739796
C       -0.0000002205     0.0019903698     -0.6240493482
H       1.3011742987     -0.8731802153     0.8856453643
H       1.3071559012     0.8750335199     0.8822965777
H       2.1882175053     -0.0051909049     -0.3942963952
C       -1.2651348068     -0.0005813528     0.2459742653
H       -0.0000002394     -0.6952816995     -1.1394780763
H       -0.0000003404     0.7011287819     -1.1346657237
H       -1.3011744974     -0.8731776201     0.8856435925
H       -2.1882157411     -0.0051902806     -0.3942945469
H       -1.3071561713     0.8750312589     0.8822953298
$end
--------------------------------------------------------------

             Standard Nuclear Orientation (Angstroms)
    I     Atom           X                Y                Z
 ----------------------------------------------------------------
    1      C       1.2651342510    -0.0005811914     0.2459739796
    2      C      -0.0000002205     0.0019903698    -0.6240493482
    3      H       1.3011742987    -0.8731802153     0.8856453643
    4      H       1.3071559012     0.8750335199     0.8822965777
    5      H       2.1882175053    -0.0051909049    -0.3942963952
    6      C      -1.2651348068    -0.0005813528     0.2459742653
    7      H      -0.0000002394    -0.6952816995    -1.1394780763
    8      H      -0.0000003404     0.7011287819    -1.1346657237
    9      H      -1.3011744974    -0.8731776201     0.8856435925
   10      H      -2.1882157411    -0.0051902806    -0.3942945469
   11      H      -1.3071561713     0.8750312589     0.8822953298
 ----------------------------------------------------------------

    7    -118.9978726982      7.42E-06 Convergence criterion met
    5    -119.0472096847      7.64E-06 Convergence criterion met
 Total energy in the final basis set = -119.04720968

                    Orbital Energies (a.u.)
 --------------------------------------------------------------

 Alpha MOs
 -- Occupied --
-10.2646 -10.2646 -10.2219  -0.8983  -0.7718  -0.7143  -0.5728  -0.5169
 -0.4804  -0.4637  -0.4330  -0.4275  -0.4084

                    Cartesian Multipole Moments
 -----------------------------------------------------------------
    Charge (ESU x 10^10)
                 0.0000
    Dipole Moment (Debye)
         X      -0.0000      Y       0.0003      Z      -0.2606
       Tot       0.2606
    Quadrupole Moments (Debye-Ang)
        XX     -22.2414     XY      -0.0000     YY     -21.0676
        XZ      -0.0000     YZ      -0.0001     ZZ     -21.1292

 Total job time:  25.36s(wall), 68.38s(cpu)
        *  Thank you very much for using Q-Chem.  Have a nice day.  *
