 Q-Chem 5.3 (devel), Q-Chem, Inc., Pleasanton, CA (2020)
 Q-Chem 5.3.0 for Intel X86 EM64T Linux

User input:
--------------------------------------------------------------
$rem
   JOBTYPE  sp
   EXCHANGE   omegaB97X-D
   BASIS   6-311+G(2df,2pd)
   UNRESTRICTED   True
   max_scf_cycles   250
   geom_opt_max_cycles   1500
   basis2 6-31G*
   scf_algorithm rca_diis
   SYM_IGNORE  TRUE
   print_input   true
   geom_opt_dmax   80
   pop_mulliken false
   XC_GRID 000075000302
$end

$molecule
0 3
N       0.7321016042     1.2558770420     2.4326888310
O       0.3641146067     2.1541727074     1.7438388787
O       1.7434913926     1.0676663428     3.0175706816
N       0.1066823907     -0.9559010263     3.5083260769
O       -0.6999787898     -1.7113262018     3.8875041418
O       -0.3014200743     0.2845002457     2.5103712800
$end
--------------------------------------------------------------

             Standard Nuclear Orientation (Angstroms)
    I     Atom           X                Y                Z
 ----------------------------------------------------------------
    1      N       0.7321016042     1.2558770420     2.4326888310
    2      O       0.3641146067     2.1541727074     1.7438388787
    3      O       1.7434913926     1.0676663428     3.0175706816
    4      N       0.1066823907    -0.9559010263     3.5083260769
    5      O      -0.6999787898    -1.7113262018     3.8875041418
    6      O      -0.3014200743     0.2845002457     2.5103712800
 ----------------------------------------------------------------

    8    -409.9243591491      9.86E-05 Convergence criterion met
    9    -410.0797237876      9.29E-06 Convergence criterion met
 Total energy in the final basis set = -410.07972379

                    Orbital Energies (a.u.)
 --------------------------------------------------------------

 Alpha MOs
 -- Occupied --
-19.4135 -19.4006 -19.3479 -19.3470 -14.7755 -14.6200  -1.4440  -1.3695
 -1.2589  -1.2096  -0.8731  -0.7793  -0.7195  -0.7186  -0.6841  -0.6534
 -0.6476  -0.6230  -0.5063  -0.4960  -0.4641  -0.4603  -0.4392  -0.3337

 Beta MOs
 -- Occupied --
-19.3993 -19.3830 -19.3475 -19.3459 -14.7759 -14.6013  -1.4400  -1.3315
 -1.2570  -1.1751  -0.8314  -0.7444  -0.7158  -0.7056  -0.6730  -0.6036
 -0.5757  -0.5693  -0.4795  -0.4712  -0.4615  -0.4464

                    Cartesian Multipole Moments
 -----------------------------------------------------------------
    Charge (ESU x 10^10)
                -0.0000
    Dipole Moment (Debye)
         X      -0.2376      Y      -0.7309      Z       0.3025
       Tot       0.8260
    Quadrupole Moments (Debye-Ang)
        XX     -33.5439     XY      -1.1875     YY     -33.9543
        XZ      -1.3190     YZ      -0.5345     ZZ     -30.1972

 Total job time:  14.59s(wall), 77.42s(cpu)
        *  Thank you very much for using Q-Chem.  Have a nice day.  *
