 Q-Chem 5.3 (devel), Q-Chem, Inc., Pleasanton, CA (2020)
 Q-Chem 5.3.0 for Intel X86 EM64T Linux

User input:
--------------------------------------------------------------
$rem
   JOBTYPE  sp
   EXCHANGE   omegaB97X-D
   BASIS   6-311+G(2df,2pd)
   UNRESTRICTED   True
   max_scf_cycles   250
   geom_opt_max_cycles   1500
   basis2 6-31G*
   scf_algorithm rca_diis
   SYM_IGNORE  TRUE
   print_input   true
   geom_opt_dmax   80
   pop_mulliken false
   XC_GRID 000075000302
$end

$molecule
0 3
N       0.6836402109     1.0961923148     2.3630749146
O       0.5669599178     2.2432103738     2.0671035121
O       1.6158477515     0.3672193112     2.3604649761
N       -0.4800226230     -0.9615550417     3.2859354273
O       0.1367231571     -1.2519668910     4.2348458874
O       -0.5781572843     0.6018890428     2.7888751725
$end
--------------------------------------------------------------

             Standard Nuclear Orientation (Angstroms)
    I     Atom           X                Y                Z
 ----------------------------------------------------------------
    1      N       0.6836402109     1.0961923148     2.3630749146
    2      O       0.5669599178     2.2432103738     2.0671035121
    3      O       1.6158477515     0.3672193112     2.3604649761
    4      N      -0.4800226230    -0.9615550417     3.2859354273
    5      O       0.1367231571    -1.2519668910     4.2348458874
    6      O      -0.5781572843     0.6018890428     2.7888751725
 ----------------------------------------------------------------

    8    -409.9250693541      6.72E-05 Convergence criterion met
   10    -410.0802543180      6.62E-06 Convergence criterion met
 Total energy in the final basis set = -410.08025432

                    Orbital Energies (a.u.)
 --------------------------------------------------------------

 Alpha MOs
 -- Occupied --
-19.4122 -19.4007 -19.3517 -19.3490 -14.7743 -14.6199  -1.4461  -1.3700
 -1.2612  -1.2079  -0.8753  -0.7767  -0.7206  -0.7186  -0.6871  -0.6581
 -0.6392  -0.6246  -0.5040  -0.4984  -0.4660  -0.4620  -0.4386  -0.3397

 Beta MOs
 -- Occupied --
-19.3993 -19.3825 -19.3495 -19.3491 -14.7741 -14.6020  -1.4414  -1.3318
 -1.2584  -1.1751  -0.8310  -0.7460  -0.7173  -0.7037  -0.6742  -0.6072
 -0.5809  -0.5577  -0.4792  -0.4728  -0.4634  -0.4478

                    Cartesian Multipole Moments
 -----------------------------------------------------------------
    Charge (ESU x 10^10)
                -0.0000
    Dipole Moment (Debye)
         X      -0.5046      Y      -0.6376      Z       0.2445
       Tot       0.8491
    Quadrupole Moments (Debye-Ang)
        XX     -33.7524     XY       0.5544     YY     -33.7456
        XZ      -1.0271     YZ      -0.5845     ZZ     -29.9843

 Total job time:  16.09s(wall), 85.75s(cpu)
        *  Thank you very much for using Q-Chem.  Have a nice day.  *
