 Q-Chem 5.3 (devel), Q-Chem, Inc., Pleasanton, CA (2020)
 Q-Chem 5.3.0 for Intel X86 EM64T Linux

User input:
--------------------------------------------------------------
$rem
   JOBTYPE  sp
   EXCHANGE   omegaB97X-D
   BASIS   6-311+G(2df,2pd)
   UNRESTRICTED   True
   max_scf_cycles   250
   geom_opt_max_cycles   1500
   basis2 6-31G*
   scf_algorithm rca_diis
   SYM_IGNORE  TRUE
   print_input   true
   geom_opt_dmax   80
   pop_mulliken false
   XC_GRID 000075000302
$end

$molecule
0 3
N       0.7286669456     1.2540714939     2.4372910150
O       0.3587095728     2.1629984112     1.7636091979
O       1.7331762731     1.0665573823     3.0341317137
N       0.1184213290     -0.9910683142     3.4507279545
O       -0.7023083411     -1.6641055249     3.9391633979
O       -0.2916746493     0.2665356615     2.4753766110
$end
--------------------------------------------------------------

             Standard Nuclear Orientation (Angstroms)
    I     Atom           X                Y                Z
 ----------------------------------------------------------------
    1      N       0.7286669456     1.2540714939     2.4372910150
    2      O       0.3587095728     2.1629984112     1.7636091979
    3      O       1.7331762731     1.0665573823     3.0341317137
    4      N       0.1184213290    -0.9910683142     3.4507279545
    5      O      -0.7023083411    -1.6641055249     3.9391633979
    6      O      -0.2916746493     0.2665356615     2.4753766110
 ----------------------------------------------------------------

    8    -409.9245997474      9.69E-05 Convergence criterion met
    9    -410.0799146969      9.41E-06 Convergence criterion met
 Total energy in the final basis set = -410.07991470

                    Orbital Energies (a.u.)
 --------------------------------------------------------------

 Alpha MOs
 -- Occupied --
-19.4134 -19.4004 -19.3480 -19.3470 -14.7752 -14.6200  -1.4440  -1.3694
 -1.2589  -1.2094  -0.8732  -0.7791  -0.7195  -0.7185  -0.6842  -0.6536
 -0.6465  -0.6237  -0.5054  -0.4963  -0.4640  -0.4603  -0.4391  -0.3344

 Beta MOs
 -- Occupied --
-19.3993 -19.3828 -19.3474 -19.3460 -14.7755 -14.6014  -1.4399  -1.3313
 -1.2569  -1.1750  -0.8312  -0.7443  -0.7157  -0.7054  -0.6729  -0.6035
 -0.5778  -0.5670  -0.4794  -0.4711  -0.4616  -0.4464

                    Cartesian Multipole Moments
 -----------------------------------------------------------------
    Charge (ESU x 10^10)
                -0.0000
    Dipole Moment (Debye)
         X      -0.2278      Y      -0.7482      Z       0.2719
       Tot       0.8280
    Quadrupole Moments (Debye-Ang)
        XX     -33.4832     XY      -1.2010     YY     -33.9128
        XZ      -1.3488     YZ      -0.6042     ZZ     -30.4511

 Total job time:  14.61s(wall), 77.51s(cpu)
        *  Thank you very much for using Q-Chem.  Have a nice day.  *
