 Q-Chem 5.3 (devel), Q-Chem, Inc., Pleasanton, CA (2020)
 Q-Chem 5.3.0 for Intel X86 EM64T Linux

User input:
--------------------------------------------------------------
$rem
   JOBTYPE  sp
   EXCHANGE   omegaB97X-D
   BASIS   6-311+G(2df,2pd)
   UNRESTRICTED   True
   max_scf_cycles   250
   geom_opt_max_cycles   1500
   basis2 6-31G*
   scf_algorithm rca_diis
   SYM_IGNORE  TRUE
   print_input   true
   geom_opt_dmax   80
   pop_mulliken false
   XC_GRID 000075000302
$end

$molecule
0 3
N       0.7320614847     1.2354841574     2.4219410508
O       0.4182793954     2.0982906300     1.6643332493
O       1.7523239080     0.9942227952     2.9708280093
N       -0.0537170910     -0.7799668513     3.7488231714
O       -0.5133661050     -1.8489468565     3.6432296436
O       -0.3905904620     0.3959052351     2.6511447656
$end
--------------------------------------------------------------

             Standard Nuclear Orientation (Angstroms)
    I     Atom           X                Y                Z
 ----------------------------------------------------------------
    1      N       0.7320614847     1.2354841574     2.4219410508
    2      O       0.4182793954     2.0982906300     1.6643332493
    3      O       1.7523239080     0.9942227952     2.9708280093
    4      N      -0.0537170910    -0.7799668513     3.7488231714
    5      O      -0.5133661050    -1.8489468565     3.6432296436
    6      O      -0.3905904620     0.3959052351     2.6511447656
 ----------------------------------------------------------------

    8    -409.9249368693      9.31E-05 Convergence criterion met
    9    -410.0801874684      9.60E-06 Convergence criterion met
 Total energy in the final basis set = -410.08018747

                    Orbital Energies (a.u.)
 --------------------------------------------------------------

 Alpha MOs
 -- Occupied --
-19.4131 -19.4004 -19.3481 -19.3468 -14.7746 -14.6201  -1.4439  -1.3694
 -1.2588  -1.2090  -0.8733  -0.7787  -0.7196  -0.7180  -0.6844  -0.6542
 -0.6442  -0.6252  -0.5052  -0.4954  -0.4639  -0.4601  -0.4388  -0.3356

 Beta MOs
 -- Occupied --
-19.3992 -19.3827 -19.3472 -19.3461 -14.7747 -14.6015  -1.4397  -1.3313
 -1.2567  -1.1748  -0.8309  -0.7442  -0.7156  -0.7051  -0.6728  -0.6033
 -0.5798  -0.5646  -0.4799  -0.4706  -0.4616  -0.4460

                    Cartesian Multipole Moments
 -----------------------------------------------------------------
    Charge (ESU x 10^10)
                -0.0000
    Dipole Moment (Debye)
         X      -0.3185      Y      -0.6389      Z       0.4365
       Tot       0.8367
    Quadrupole Moments (Debye-Ang)
        XX     -33.7757     XY      -0.8864     YY     -33.9663
        XZ      -1.4028     YZ      -0.1884     ZZ     -29.0907

 Total job time:  14.64s(wall), 77.61s(cpu)
        *  Thank you very much for using Q-Chem.  Have a nice day.  *
