 Q-Chem 5.3 (devel), Q-Chem, Inc., Pleasanton, CA (2020)
 Q-Chem 5.3.0 for Intel X86 EM64T Linux

User input:
--------------------------------------------------------------
$rem
   JOBTYPE  sp
   EXCHANGE   omegaB97X-D
   BASIS   6-311+G(2df,2pd)
   UNRESTRICTED   True
   max_scf_cycles   250
   geom_opt_max_cycles   1500
   basis2 6-31G*
   scf_algorithm rca_diis
   SYM_IGNORE  TRUE
   print_input   true
   geom_opt_dmax   80
   pop_mulliken false
   XC_GRID 000075000302
$end

$molecule
0 3
N       0.7194488798     1.2024896894     2.4241197284
O       0.4625766458     2.0693950795     1.6499392006
O       1.7283955555     0.8877585028     2.9564638241
N       -0.2041222922     -0.7019990285     3.8241361263
O       -0.2958876174     -1.8325378470     3.5437675017
O       -0.4654200413     0.4698827138     2.7018735089
$end
--------------------------------------------------------------

             Standard Nuclear Orientation (Angstroms)
    I     Atom           X                Y                Z
 ----------------------------------------------------------------
    1      N       0.7194488798     1.2024896894     2.4241197284
    2      O       0.4625766458     2.0693950795     1.6499392006
    3      O       1.7283955555     0.8877585028     2.9564638241
    4      N      -0.2041222922    -0.7019990285     3.8241361263
    5      O      -0.2958876174    -1.8325378470     3.5437675017
    6      O      -0.4654200413     0.4698827138     2.7018735089
 ----------------------------------------------------------------

    7    -409.9259234437      8.86E-05 Convergence criterion met
   10    -410.0811843410      5.45E-06 Convergence criterion met
 Total energy in the final basis set = -410.08118434

                    Orbital Energies (a.u.)
 --------------------------------------------------------------

 Alpha MOs
 -- Occupied --
-19.4123 -19.4003 -19.3491 -19.3474 -14.7735 -14.6205  -1.4442  -1.3694
 -1.2592  -1.2082  -0.8739  -0.7778  -0.7199  -0.7180  -0.6853  -0.6554
 -0.6375  -0.6300  -0.5032  -0.4953  -0.4642  -0.4607  -0.4383  -0.3393

 Beta MOs
 -- Occupied --
-19.3988 -19.3823 -19.3478 -19.3470 -14.7734 -14.6023  -1.4397  -1.3312
 -1.2568  -1.1745  -0.8304  -0.7443  -0.7157  -0.7047  -0.6730  -0.6036
 -0.5830  -0.5602  -0.4797  -0.4705  -0.4621  -0.4464

                    Cartesian Multipole Moments
 -----------------------------------------------------------------
    Charge (ESU x 10^10)
                -0.0000
    Dipole Moment (Debye)
         X      -0.3863      Y      -0.5805      Z       0.4736
       Tot       0.8429
    Quadrupole Moments (Debye-Ang)
        XX     -33.8708     XY      -0.5330     YY     -33.8380
        XZ      -1.5955     YZ      -0.0152     ZZ     -28.7353

 Total job time:  15.41s(wall), 82.23s(cpu)
        *  Thank you very much for using Q-Chem.  Have a nice day.  *
