 Q-Chem 5.3 (devel), Q-Chem, Inc., Pleasanton, CA (2020)
 Q-Chem 5.3.0 for Intel X86 EM64T Linux

User input:
--------------------------------------------------------------
$rem
   JOBTYPE  sp
   EXCHANGE   omegaB97X-D
   BASIS   6-311+G(2df,2pd)
   UNRESTRICTED   True
   max_scf_cycles   250
   geom_opt_max_cycles   1500
   basis2 6-31G*
   scf_algorithm rca_diis
   SYM_IGNORE  TRUE
   print_input   true
   geom_opt_dmax   80
   pop_mulliken false
   XC_GRID 000075000302
$end

$molecule
0 3
N       0.7009494960     1.1607042209     2.4294178683
O       0.5078008216     2.0562319575     1.6694261236
O       1.6883484901     0.7481477817     2.9346502519
N       -0.3627252631     -0.6657954272     3.8339113511
O       -0.0493698751     -1.7419805014     3.5040939050
O       -0.5400125393     0.5376810785     2.7288003901
$end
--------------------------------------------------------------

             Standard Nuclear Orientation (Angstroms)
    I     Atom           X                Y                Z
 ----------------------------------------------------------------
    1      N       0.7009494960     1.1607042209     2.4294178683
    2      O       0.5078008216     2.0562319575     1.6694261236
    3      O       1.6883484901     0.7481477817     2.9346502519
    4      N      -0.3627252631    -0.6657954272     3.8339113511
    5      O      -0.0493698751    -1.7419805014     3.5040939050
    6      O      -0.5400125393     0.5376810785     2.7288003901
 ----------------------------------------------------------------

    8    -409.9260100496      5.53E-05 Convergence criterion met
   10    -410.0812423264      5.88E-06 Convergence criterion met
 Total energy in the final basis set = -410.08124233

                    Orbital Energies (a.u.)
 --------------------------------------------------------------

 Alpha MOs
 -- Occupied --
-19.4120 -19.4007 -19.3507 -19.3485 -14.7737 -14.6204  -1.4452  -1.3699
 -1.2603  -1.2078  -0.8748  -0.7770  -0.7201  -0.7187  -0.6865  -0.6570
 -0.6359  -0.6295  -0.5036  -0.4961  -0.4653  -0.4618  -0.4382  -0.3410

 Beta MOs
 -- Occupied --
-19.3990 -19.3826 -19.3489 -19.3483 -14.7734 -14.6025  -1.4406  -1.3316
 -1.2577  -1.1747  -0.8307  -0.7451  -0.7165  -0.7043  -0.6737  -0.6055
 -0.5825  -0.5580  -0.4798  -0.4714  -0.4629  -0.4472

                    Cartesian Multipole Moments
 -----------------------------------------------------------------
    Charge (ESU x 10^10)
                -0.0000
    Dipole Moment (Debye)
         X      -0.4564      Y      -0.5425      Z       0.4678
       Tot       0.8494
    Quadrupole Moments (Debye-Ang)
        XX     -33.9093     XY      -0.1150     YY     -33.6607
        XZ      -1.8203     YZ       0.0295     ZZ     -28.6807

 Total job time:  16.01s(wall), 85.69s(cpu)
        *  Thank you very much for using Q-Chem.  Have a nice day.  *
