 Q-Chem 5.3 (devel), Q-Chem, Inc., Pleasanton, CA (2020)
 Q-Chem 5.3.0 for Intel X86 EM64T Linux

User input:
--------------------------------------------------------------
$rem
   JOBTYPE  sp
   EXCHANGE   omegaB97X-D
   BASIS   6-311+G(2df,2pd)
   UNRESTRICTED   True
   max_scf_cycles   250
   geom_opt_max_cycles   1500
   basis2 6-31G*
   scf_algorithm rca_diis
   SYM_IGNORE  TRUE
   print_input   true
   geom_opt_dmax   80
   pop_mulliken false
   XC_GRID 000075000302
$end

$molecule
0 3
N       0.6650460009     1.0799337602     2.4289873700
O       0.5869903339     2.1128581689     1.8426101294
O       1.5930161423     0.4289634593     2.7688821107
N       -0.6162846799     -0.7610393405     3.6160495544
O       0.3618903533     -1.3937236924     3.7056574555
O       -0.6456670203     0.6279967544     2.7381132700
$end
--------------------------------------------------------------

             Standard Nuclear Orientation (Angstroms)
    I     Atom           X                Y                Z
 ----------------------------------------------------------------
    1      N       0.6650460009     1.0799337602     2.4289873700
    2      O       0.5869903339     2.1128581689     1.8426101294
    3      O       1.5930161423     0.4289634593     2.7688821107
    4      N      -0.6162846799    -0.7610393405     3.6160495544
    5      O       0.3618903533    -1.3937236924     3.7056574555
    6      O      -0.6456670203     0.6279967544     2.7381132700
 ----------------------------------------------------------------

    8    -409.9163770465      8.27E-05 Convergence criterion met
   10    -410.0710598422      5.15E-06 Convergence criterion met
 Total energy in the final basis set = -410.07105984

                    Orbital Energies (a.u.)
 --------------------------------------------------------------

 Alpha MOs
 -- Occupied --
-19.4099 -19.4028 -19.3509 -19.3492 -14.7759 -14.6141  -1.4476  -1.3715
 -1.2627  -1.2063  -0.8751  -0.7803  -0.7211  -0.7124  -0.6859  -0.6605
 -0.6513  -0.6136  -0.5049  -0.5041  -0.4670  -0.4533  -0.4414  -0.3314

 Beta MOs
 -- Occupied --
-19.3973 -19.3837 -19.3490 -19.3485 -14.7762 -14.5961  -1.4429  -1.3320
 -1.2591  -1.1749  -0.8295  -0.7530  -0.7182  -0.6966  -0.6728  -0.6146
 -0.5723  -0.5587  -0.4805  -0.4752  -0.4626  -0.4432

                    Cartesian Multipole Moments
 -----------------------------------------------------------------
    Charge (ESU x 10^10)
                 0.0000
    Dipole Moment (Debye)
         X      -0.4395      Y      -0.6165      Z       0.3871
       Tot       0.8503
    Quadrupole Moments (Debye-Ang)
        XX     -33.8601     XY       0.4771     YY     -33.6091
        XZ      -1.4931     YZ      -0.3230     ZZ     -29.0409

 Total job time:  15.60s(wall), 82.37s(cpu)
        *  Thank you very much for using Q-Chem.  Have a nice day.  *
