 Q-Chem 5.3 (devel), Q-Chem, Inc., Pleasanton, CA (2020)
 Q-Chem 5.3.0 for Intel X86 EM64T Linux

User input:
--------------------------------------------------------------
$rem
   JOBTYPE  sp
   EXCHANGE   omegaB97X-D
   BASIS   6-311+G(2df,2pd)
   UNRESTRICTED   True
   max_scf_cycles   250
   geom_opt_max_cycles   1500
   basis2 6-31G*
   scf_algorithm rca_diis
   SYM_IGNORE  TRUE
   print_input   true
   geom_opt_dmax   80
   pop_mulliken false
   XC_GRID 000075000302
$end

$molecule
0 3
N       0.9263206110     1.1349114565     2.6408362978
O       0.9697063135     1.9768332263     3.4811631412
O       0.9019026079     1.1941732066     1.4591801902
N       -0.6258856745     -0.6758125926     3.5080392531
O       -1.1360210937     -1.3959704632     2.7423500497
O       0.9089683660     -0.1391457237     3.2687309580
$end
--------------------------------------------------------------

             Standard Nuclear Orientation (Angstroms)
    I     Atom           X                Y                Z
 ----------------------------------------------------------------
    1      N       0.9263206110     1.1349114565     2.6408362978
    2      O       0.9697063135     1.9768332263     3.4811631412
    3      O       0.9019026079     1.1941732066     1.4591801902
    4      N      -0.6258856745    -0.6758125926     3.5080392531
    5      O      -1.1360210937    -1.3959704632     2.7423500497
    6      O       0.9089683660    -0.1391457237     3.2687309580
 ----------------------------------------------------------------

    8    -409.9104512969      7.86E-05 Convergence criterion met
   14    -410.0664043719      9.13E-06 Convergence criterion met
 Total energy in the final basis set = -410.06640437

                    Orbital Energies (a.u.)
 --------------------------------------------------------------

 Alpha MOs
 -- Occupied --
-19.4042 -19.4009 -19.3530 -19.3407 -14.7680 -14.6282  -1.4417  -1.3735
 -1.2573  -1.2030  -0.8771  -0.7779  -0.7274  -0.7124  -0.6745  -0.6549
 -0.6380  -0.6311  -0.5181  -0.4841  -0.4653  -0.4589  -0.4288  -0.3452

 Beta MOs
 -- Occupied --
-19.3876 -19.3865 -19.3523 -19.3401 -14.7682 -14.6098  -1.4377  -1.3354
 -1.2549  -1.1688  -0.8319  -0.7493  -0.7104  -0.7013  -0.6719  -0.5970
 -0.5850  -0.5653  -0.5013  -0.4675  -0.4579  -0.4212

                    Cartesian Multipole Moments
 -----------------------------------------------------------------
    Charge (ESU x 10^10)
                -0.0000
    Dipole Moment (Debye)
         X      -0.3531      Y      -0.7536      Z       0.2387
       Tot       0.8658
    Quadrupole Moments (Debye-Ang)
        XX     -30.4562     XY      -0.8122     YY     -34.5057
        XZ      -1.6846     YZ      -2.7751     ZZ     -32.5441

 Total job time:  19.42s(wall), 106.21s(cpu)
        *  Thank you very much for using Q-Chem.  Have a nice day.  *
