 Q-Chem 5.3 (devel), Q-Chem, Inc., Pleasanton, CA (2020)
 Q-Chem 5.3.0 for Intel X86 EM64T Linux

User input:
--------------------------------------------------------------
$rem
   JOBTYPE  sp
   EXCHANGE   omegaB97X-D
   BASIS   6-311+G(2df,2pd)
   UNRESTRICTED   True
   max_scf_cycles   250
   geom_opt_max_cycles   1500
   basis2 6-31G*
   scf_algorithm rca_diis
   SYM_IGNORE  TRUE
   print_input   true
   geom_opt_dmax   80
   pop_mulliken false
   XC_GRID 000075000302
$end

$molecule
0 3
N       0.8539819597     1.1286424597     2.4566260353
O       -0.0984800520     1.7615262581     2.7869864499
O       1.9962242931     1.4158538157     2.3416850098
N       -0.0590569406     -0.9816350413     3.5304955509
O       -1.1925484613     -1.0273711460     3.8102287129
O       0.4448703312     -0.2020272363     2.1742781312
$end
--------------------------------------------------------------

             Standard Nuclear Orientation (Angstroms)
    I     Atom           X                Y                Z
 ----------------------------------------------------------------
    1      N       0.8539819597     1.1286424597     2.4566260353
    2      O      -0.0984800520     1.7615262581     2.7869864499
    3      O       1.9962242931     1.4158538157     2.3416850098
    4      N      -0.0590569406    -0.9816350413     3.5304955509
    5      O      -1.1925484613    -1.0273711460     3.8102287129
    6      O       0.4448703312    -0.2020272363     2.1742781312
 ----------------------------------------------------------------

    8    -409.9108738293      7.82E-05 Convergence criterion met
   14    -410.0667726669      8.94E-06 Convergence criterion met
 Total energy in the final basis set = -410.06677267

                    Orbital Energies (a.u.)
 --------------------------------------------------------------

 Alpha MOs
 -- Occupied --
-19.4045 -19.4004 -19.3525 -19.3406 -14.7681 -14.6270  -1.4417  -1.3729
 -1.2576  -1.2019  -0.8770  -0.7775  -0.7258  -0.7127  -0.6749  -0.6544
 -0.6384  -0.6308  -0.5154  -0.4832  -0.4646  -0.4593  -0.4304  -0.3444

 Beta MOs
 -- Occupied --
-19.3873 -19.3866 -19.3521 -19.3395 -14.7683 -14.6088  -1.4377  -1.3346
 -1.2551  -1.1681  -0.8317  -0.7483  -0.7102  -0.7006  -0.6720  -0.5997
 -0.5835  -0.5637  -0.4981  -0.4664  -0.4583  -0.4218

                    Cartesian Multipole Moments
 -----------------------------------------------------------------
    Charge (ESU x 10^10)
                -0.0000
    Dipole Moment (Debye)
         X      -0.1474      Y      -0.8718      Z       0.1846
       Tot       0.9032
    Quadrupole Moments (Debye-Ang)
        XX     -34.5153     XY      -0.3292     YY     -33.7098
        XZ       0.5375     YZ      -3.4938     ZZ     -29.2629

 Total job time:  19.73s(wall), 108.06s(cpu)
        *  Thank you very much for using Q-Chem.  Have a nice day.  *
