 Q-Chem 5.3 (devel), Q-Chem, Inc., Pleasanton, CA (2020)
 Q-Chem 5.3.0 for Intel X86 EM64T Linux

User input:
--------------------------------------------------------------
$rem
   JOBTYPE  sp
   EXCHANGE   omegaB97X-D
   BASIS   6-311+G(2df,2pd)
   UNRESTRICTED   True
   max_scf_cycles   250
   geom_opt_max_cycles   1500
   basis2 6-31G*
   scf_algorithm rca_diis
   SYM_IGNORE  TRUE
   print_input   true
   geom_opt_dmax   80
   pop_mulliken false
   XC_GRID 000075000302
$end

$molecule
0 3
N       0.7120017815     1.2380563447     2.4553117628
O       0.3571211823     2.1797511794     1.8195961126
O       1.6828759491     1.0376024273     3.1015632064
N       0.1083779426     -1.0845960659     3.2805577512
O       -0.6369610988     -1.4996991676     4.0788713420
O       -0.2784246266     0.2238743921     2.3643997150
$end
--------------------------------------------------------------

             Standard Nuclear Orientation (Angstroms)
    I     Atom           X                Y                Z
 ----------------------------------------------------------------
    1      N       0.7120017815     1.2380563447     2.4553117628
    2      O       0.3571211823     2.1797511794     1.8195961126
    3      O       1.6828759491     1.0376024273     3.1015632064
    4      N       0.1083779426    -1.0845960659     3.2805577512
    5      O      -0.6369610988    -1.4996991676     4.0788713420
    6      O      -0.2784246266     0.2238743921     2.3643997150
 ----------------------------------------------------------------

    7    -409.9256155993      9.54E-05 Convergence criterion met
   10    -410.0808803611      5.39E-06 Convergence criterion met
 Total energy in the final basis set = -410.08088036

                    Orbital Energies (a.u.)
 --------------------------------------------------------------

 Alpha MOs
 -- Occupied --
-19.4127 -19.3998 -19.3487 -19.3472 -14.7739 -14.6204  -1.4441  -1.3692
 -1.2590  -1.2087  -0.8736  -0.7781  -0.7197  -0.7182  -0.6849  -0.6546
 -0.6408  -0.6276  -0.5018  -0.4974  -0.4639  -0.4607  -0.4385  -0.3378

 Beta MOs
 -- Occupied --
-19.3990 -19.3821 -19.3476 -19.3467 -14.7739 -14.6020  -1.4397  -1.3311
 -1.2568  -1.1746  -0.8306  -0.7441  -0.7158  -0.7049  -0.6729  -0.6033
 -0.5823  -0.5615  -0.4789  -0.4709  -0.4620  -0.4466

                    Cartesian Multipole Moments
 -----------------------------------------------------------------
    Charge (ESU x 10^10)
                -0.0000
    Dipole Moment (Debye)
         X      -0.2182      Y      -0.7860      Z       0.1766
       Tot       0.8346
    Quadrupole Moments (Debye-Ang)
        XX     -33.2791     XY      -1.1541     YY     -33.7183
        XZ      -1.5462     YZ      -0.7876     ZZ     -31.2654

 Total job time:  15.26s(wall), 81.17s(cpu)
        *  Thank you very much for using Q-Chem.  Have a nice day.  *
