 Q-Chem 5.3 (devel), Q-Chem, Inc., Pleasanton, CA (2020)
 Q-Chem 5.3.0 for Intel X86 EM64T Linux

User input:
--------------------------------------------------------------
$rem
   JOBTYPE  sp
   EXCHANGE   omegaB97X-D
   BASIS   6-311+G(2df,2pd)
   UNRESTRICTED   True
   max_scf_cycles   250
   geom_opt_max_cycles   1500
   basis2 6-31G*
   scf_algorithm rca_diis
   SYM_IGNORE  TRUE
   print_input   true
   geom_opt_dmax   80
   pop_mulliken false
   XC_GRID 000075000302
$end

$molecule
0 3
N       0.9310776384     1.1248805161     2.6047171416
O       0.7566931089     1.8942694645     3.4960613352
O       1.0850055754     1.2800247188     1.4416798176
N       -0.5575584001     -0.6871303464     3.5746069704
O       -1.2168939730     -1.3236021595     2.8498134176
O       0.9466671805     -0.1934530836     3.1334212076
$end
--------------------------------------------------------------

             Standard Nuclear Orientation (Angstroms)
    I     Atom           X                Y                Z
 ----------------------------------------------------------------
    1      N       0.9310776384     1.1248805161     2.6047171416
    2      O       0.7566931089     1.8942694645     3.4960613352
    3      O       1.0850055754     1.2800247188     1.4416798176
    4      N      -0.5575584001    -0.6871303464     3.5746069704
    5      O      -1.2168939730    -1.3236021595     2.8498134176
    6      O       0.9466671805    -0.1934530836     3.1334212076
 ----------------------------------------------------------------

    8    -409.9119002094      8.05E-05 Convergence criterion met
   12    -410.0677083951      7.22E-06 Convergence criterion met
 Total energy in the final basis set = -410.06770840

                    Orbital Energies (a.u.)
 --------------------------------------------------------------

 Alpha MOs
 -- Occupied --
-19.4058 -19.3994 -19.3574 -19.3399 -14.7701 -14.6251  -1.4437  -1.3701
 -1.2598  -1.2052  -0.8763  -0.7775  -0.7269  -0.7143  -0.6768  -0.6525
 -0.6352  -0.6318  -0.5209  -0.4862  -0.4653  -0.4586  -0.4332  -0.3423

 Beta MOs
 -- Occupied --
-19.3917 -19.3824 -19.3561 -19.3398 -14.7702 -14.6068  -1.4393  -1.3331
 -1.2567  -1.1702  -0.8333  -0.7486  -0.7126  -0.7023  -0.6724  -0.5964
 -0.5858  -0.5633  -0.4976  -0.4693  -0.4595  -0.4240

                    Cartesian Multipole Moments
 -----------------------------------------------------------------
    Charge (ESU x 10^10)
                -0.0000
    Dipole Moment (Debye)
         X      -0.1920      Y      -0.7029      Z       0.1981
       Tot       0.7551
    Quadrupole Moments (Debye-Ang)
        XX     -30.7158     XY      -0.5343     YY     -34.4762
        XZ      -0.7187     YZ      -2.6314     ZZ     -32.4824

 Total job time:  17.62s(wall), 95.60s(cpu)
        *  Thank you very much for using Q-Chem.  Have a nice day.  *
