 Q-Chem 5.3 (devel), Q-Chem, Inc., Pleasanton, CA (2020)
 Q-Chem 5.3.0 for Intel X86 EM64T Linux

User input:
--------------------------------------------------------------
$rem
   JOBTYPE  sp
   EXCHANGE   omegaB97X-D
   BASIS   6-311+G(2df,2pd)
   UNRESTRICTED   True
   max_scf_cycles   250
   geom_opt_max_cycles   1500
   basis2 6-31G*
   scf_algorithm rca_diis
   SYM_IGNORE  TRUE
   print_input   true
   geom_opt_dmax   80
   pop_mulliken false
   XC_GRID 000075000302
$end

$molecule
0 3
N       0.9231924460     1.1398797338     2.6584662090
O       1.0771509580     2.0059355244     3.4604063150
O       0.8144383436     1.1600364083     1.4802533232
N       -0.6589392792     -0.6705390177     3.4704699338
O       -1.0903615608     -1.4317160119     2.6961122263
O       0.8795102225     -0.1086075269     3.3345918826
$end
--------------------------------------------------------------

             Standard Nuclear Orientation (Angstroms)
    I     Atom           X                Y                Z
 ----------------------------------------------------------------
    1      N       0.9231924460     1.1398797338     2.6584662090
    2      O       1.0771509580     2.0059355244     3.4604063150
    3      O       0.8144383436     1.1600364083     1.4802533232
    4      N      -0.6589392792    -0.6705390177     3.4704699338
    5      O      -1.0903615608    -1.4317160119     2.6961122263
    6      O       0.8795102225    -0.1086075269     3.3345918826
 ----------------------------------------------------------------

    8    -409.9111807966      7.21E-05 Convergence criterion met
   16    -410.0671282114      6.76E-06 Convergence criterion met
 Total energy in the final basis set = -410.06712821

                    Orbital Energies (a.u.)
 --------------------------------------------------------------

 Alpha MOs
 -- Occupied --
-19.4064 -19.3996 -19.3505 -19.3422 -14.7676 -14.6283  -1.4411  -1.3749
 -1.2565  -1.2022  -0.8772  -0.7780  -0.7269  -0.7120  -0.6745  -0.6559
 -0.6394  -0.6309  -0.5164  -0.4833  -0.4651  -0.4587  -0.4287  -0.3460

 Beta MOs
 -- Occupied --
-19.3883 -19.3867 -19.3502 -19.3411 -14.7678 -14.6100  -1.4371  -1.3363
 -1.2543  -1.1686  -0.8313  -0.7494  -0.7099  -0.7011  -0.6717  -0.5972
 -0.5850  -0.5657  -0.5010  -0.4667  -0.4580  -0.4213

                    Cartesian Multipole Moments
 -----------------------------------------------------------------
    Charge (ESU x 10^10)
                -0.0000
    Dipole Moment (Debye)
         X      -0.4348      Y      -0.7793      Z       0.2573
       Tot       0.9287
    Quadrupole Moments (Debye-Ang)
        XX     -30.4462     XY      -0.9686     YY     -34.4363
        XZ      -2.1006     YZ      -2.7771     ZZ     -32.5244

 Total job time:  21.40s(wall), 118.10s(cpu)
        *  Thank you very much for using Q-Chem.  Have a nice day.  *
