 Q-Chem 5.3 (devel), Q-Chem, Inc., Pleasanton, CA (2020)
 Q-Chem 5.3.0 for Intel X86 EM64T Linux

User input:
--------------------------------------------------------------
$rem
   JOBTYPE  sp
   EXCHANGE   omegaB97X-D
   BASIS   6-311+G(2df,2pd)
   UNRESTRICTED   True
   max_scf_cycles   250
   geom_opt_max_cycles   1500
   basis2 6-31G*
   scf_algorithm rca_diis
   SYM_IGNORE  TRUE
   print_input   true
   geom_opt_dmax   80
   pop_mulliken false
   XC_GRID 000075000302
$end

$molecule
0 3
N       0.9190901924     1.0994574664     2.4861351266
O       0.0963484097     1.5705451673     3.2058823923
O       1.7483362311     1.5916010312     1.8001576711
N       -0.2592736531     -0.8064253049     3.6774270347
O       -1.3693881688     -1.0440331279     3.4011414122
O       0.8098781187     -0.3161561221     2.5295562530
$end
--------------------------------------------------------------

             Standard Nuclear Orientation (Angstroms)
    I     Atom           X                Y                Z
 ----------------------------------------------------------------
    1      N       0.9190901924     1.0994574664     2.4861351266
    2      O       0.0963484097     1.5705451673     3.2058823923
    3      O       1.7483362311     1.5916010312     1.8001576711
    4      N      -0.2592736531    -0.8064253049     3.6774270347
    5      O      -1.3693881688    -1.0440331279     3.4011414122
    6      O       0.8098781187    -0.3161561221     2.5295562530
 ----------------------------------------------------------------

    8    -409.9161934186      6.10E-05 Convergence criterion met
   10    -410.0716586838      4.49E-06 Convergence criterion met
 Total energy in the final basis set = -410.07165868

                    Orbital Energies (a.u.)
 --------------------------------------------------------------

 Alpha MOs
 -- Occupied --
-19.4099 -19.4016 -19.3558 -19.3334 -14.7709 -14.6220  -1.4429  -1.3703
 -1.2597  -1.2038  -0.8768  -0.7745  -0.7185  -0.7169  -0.6824  -0.6599
 -0.6337  -0.6323  -0.5011  -0.4926  -0.4615  -0.4579  -0.4394  -0.3393

 Beta MOs
 -- Occupied --
-19.3962 -19.3838 -19.3544 -19.3335 -14.7707 -14.6038  -1.4382  -1.3323
 -1.2560  -1.1705  -0.8334  -0.7408  -0.7141  -0.7050  -0.6704  -0.6074
 -0.5836  -0.5589  -0.4790  -0.4685  -0.4598  -0.4371

                    Cartesian Multipole Moments
 -----------------------------------------------------------------
    Charge (ESU x 10^10)
                -0.0000
    Dipole Moment (Debye)
         X      -0.1428      Y      -0.8354      Z       0.2286
       Tot       0.8778
    Quadrupole Moments (Debye-Ang)
        XX     -33.2136     XY      -0.3855     YY     -34.2100
        XZ       1.1625     YZ      -2.7789     ZZ     -29.9492

 Total job time:  15.80s(wall), 84.37s(cpu)
        *  Thank you very much for using Q-Chem.  Have a nice day.  *
