 Q-Chem 5.3 (devel), Q-Chem, Inc., Pleasanton, CA (2020)
 Q-Chem 5.3.0 for Intel X86 EM64T Linux

User input:
--------------------------------------------------------------
$rem
   JOBTYPE  sp
   EXCHANGE   omegaB97X-D
   BASIS   6-311+G(2df,2pd)
   UNRESTRICTED   True
   max_scf_cycles   250
   geom_opt_max_cycles   1500
   basis2 6-31G*
   scf_algorithm rca_diis
   SYM_IGNORE  TRUE
   print_input   true
   geom_opt_dmax   80
   pop_mulliken false
   XC_GRID 000075000302
$end

$molecule
0 3
N       0.6964630371     1.2205199339     2.4699484607
O       0.3694787130     2.1817818596     1.8487234198
O       1.6326873994     1.0029299903     3.1602802001
N       0.0660311334     -1.1324749122     3.1813398927
O       -0.5392646980     -1.3826499453     4.1489011931
O       -0.2804044548     0.2048821837     2.2911067236
$end
--------------------------------------------------------------

             Standard Nuclear Orientation (Angstroms)
    I     Atom           X                Y                Z
 ----------------------------------------------------------------
    1      N       0.6964630371     1.2205199339     2.4699484607
    2      O       0.3694787130     2.1817818596     1.8487234198
    3      O       1.6326873994     1.0029299903     3.1602802001
    4      N       0.0660311334    -1.1324749122     3.1813398927
    5      O      -0.5392646980    -1.3826499453     4.1489011931
    6      O      -0.2804044548     0.2048821837     2.2911067236
 ----------------------------------------------------------------

    7    -409.9261853242      8.99E-05 Convergence criterion met
   10    -410.0814634859      5.48E-06 Convergence criterion met
 Total energy in the final basis set = -410.08146349

                    Orbital Energies (a.u.)
 --------------------------------------------------------------

 Alpha MOs
 -- Occupied --
-19.4124 -19.3998 -19.3497 -19.3479 -14.7736 -14.6206  -1.4446  -1.3693
 -1.2596  -1.2083  -0.8741  -0.7775  -0.7200  -0.7184  -0.6857  -0.6555
 -0.6358  -0.6312  -0.5012  -0.4976  -0.4644  -0.4614  -0.4382  -0.3399

 Beta MOs
 -- Occupied --
-19.3990 -19.3820 -19.3482 -19.3476 -14.7734 -14.6024  -1.4400  -1.3312
 -1.2572  -1.1746  -0.8305  -0.7443  -0.7162  -0.7047  -0.6732  -0.6039
 -0.5834  -0.5593  -0.4788  -0.4712  -0.4626  -0.4472

                    Cartesian Multipole Moments
 -----------------------------------------------------------------
    Charge (ESU x 10^10)
                -0.0000
    Dipole Moment (Debye)
         X      -0.2274      Y      -0.7935      Z       0.1156
       Tot       0.8335
    Quadrupole Moments (Debye-Ang)
        XX     -33.1284     XY      -1.0528     YY     -33.5300
        XZ      -1.7403     YZ      -0.8744     ZZ     -31.8230

 Total job time:  15.46s(wall), 82.55s(cpu)
        *  Thank you very much for using Q-Chem.  Have a nice day.  *
