 Q-Chem 5.3 (devel), Q-Chem, Inc., Pleasanton, CA (2020)
 Q-Chem 5.3.0 for Intel X86 EM64T Linux

User input:
--------------------------------------------------------------
$rem
   JOBTYPE  sp
   EXCHANGE   omegaB97X-D
   BASIS   6-311+G(2df,2pd)
   UNRESTRICTED   True
   max_scf_cycles   250
   geom_opt_max_cycles   1500
   basis2 6-31G*
   scf_algorithm rca_diis
   SYM_IGNORE  TRUE
   print_input   true
   geom_opt_dmax   80
   pop_mulliken false
   XC_GRID 000075000302
$end

$molecule
0 3
N       0.8228487205     1.1444403974     2.4547771609
O       -0.0908987466     1.8893389873     2.6192625603
O       1.9940937686     1.2980884589     2.5254642257
N       -0.0088320661     -1.0303377709     3.4641105490
O       -1.0859888307     -1.0674267871     3.9152238055
O       0.3137682844     -0.1391141756     2.1214615885
$end
--------------------------------------------------------------

             Standard Nuclear Orientation (Angstroms)
    I     Atom           X                Y                Z
 ----------------------------------------------------------------
    1      N       0.8228487205     1.1444403974     2.4547771609
    2      O      -0.0908987466     1.8893389873     2.6192625603
    3      O       1.9940937686     1.2980884589     2.5254642257
    4      N      -0.0088320661    -1.0303377709     3.4641105490
    5      O      -1.0859888307    -1.0674267871     3.9152238055
    6      O       0.3137682844    -0.1391141756     2.1214615885
 ----------------------------------------------------------------

    8    -409.9116532119      8.72E-05 Convergence criterion met
   13    -410.0676693724      7.51E-06 Convergence criterion met
 Total energy in the final basis set = -410.06766937

                    Orbital Energies (a.u.)
 --------------------------------------------------------------

 Alpha MOs
 -- Occupied --
-19.4025 -19.3998 -19.3518 -19.3481 -14.7702 -14.6256  -1.4440  -1.3699
 -1.2595  -1.2047  -0.8760  -0.7781  -0.7278  -0.7138  -0.6772  -0.6518
 -0.6351  -0.6303  -0.5221  -0.4833  -0.4669  -0.4583  -0.4338  -0.3421

 Beta MOs
 -- Occupied --
-19.3889 -19.3826 -19.3520 -19.3460 -14.7704 -14.6072  -1.4397  -1.3326
 -1.2571  -1.1697  -0.8318  -0.7496  -0.7124  -0.7008  -0.6740  -0.5978
 -0.5830  -0.5625  -0.5002  -0.4679  -0.4612  -0.4231

                    Cartesian Multipole Moments
 -----------------------------------------------------------------
    Charge (ESU x 10^10)
                -0.0000
    Dipole Moment (Debye)
         X      -0.0965      Y      -0.7344      Z       0.0886
       Tot       0.7460
    Quadrupole Moments (Debye-Ang)
        XX     -34.6151     XY      -0.3340     YY     -33.5443
        XZ       0.2320     YZ      -2.9182     ZZ     -29.9906

 Total job time:  18.58s(wall), 101.13s(cpu)
        *  Thank you very much for using Q-Chem.  Have a nice day.  *
