 Q-Chem 5.3 (devel), Q-Chem, Inc., Pleasanton, CA (2020)
 Q-Chem 5.3.0 for Intel X86 EM64T Linux

User input:
--------------------------------------------------------------
$rem
   JOBTYPE  sp
   EXCHANGE   omegaB97X-D
   BASIS   6-311+G(2df,2pd)
   UNRESTRICTED   True
   max_scf_cycles   250
   geom_opt_max_cycles   1500
   basis2 6-31G*
   scf_algorithm rca_diis
   SYM_IGNORE  TRUE
   print_input   true
   geom_opt_dmax   80
   pop_mulliken false
   XC_GRID 000075000302
$end

$molecule
0 3
N       0.7343951555     1.2557263064     2.4288893342
O       0.3716674223     2.1440936446     1.7245486116
O       1.7507714768     1.0637751816     3.0038269740
N       0.0875044929     -0.9197260663     3.5642511027
O       -0.6853169468     -1.7530622055     3.8352554610
O       -0.3140304707     0.3041822492     2.5435284066
$end
--------------------------------------------------------------

             Standard Nuclear Orientation (Angstroms)
    I     Atom           X                Y                Z
 ----------------------------------------------------------------
    1      N       0.7343951555     1.2557263064     2.4288893342
    2      O       0.3716674223     2.1440936446     1.7245486116
    3      O       1.7507714768     1.0637751816     3.0038269740
    4      N       0.0875044929    -0.9197260663     3.5642511027
    5      O      -0.6853169468    -1.7530622055     3.8352554610
    6      O      -0.3140304707     0.3041822492     2.5435284066
 ----------------------------------------------------------------

    8    -409.9242373857      9.93E-05 Convergence criterion met
    9    -410.0796224799      9.22E-06 Convergence criterion met
 Total energy in the final basis set = -410.07962248

                    Orbital Energies (a.u.)
 --------------------------------------------------------------

 Alpha MOs
 -- Occupied --
-19.4135 -19.4007 -19.3478 -19.3470 -14.7757 -14.6200  -1.4441  -1.3695
 -1.2589  -1.2096  -0.8731  -0.7794  -0.7195  -0.7186  -0.6841  -0.6533
 -0.6482  -0.6227  -0.5069  -0.4957  -0.4641  -0.4602  -0.4392  -0.3334

 Beta MOs
 -- Occupied --
-19.3993 -19.3832 -19.3475 -19.3459 -14.7761 -14.6013  -1.4401  -1.3315
 -1.2570  -1.1752  -0.8314  -0.7444  -0.7158  -0.7057  -0.6730  -0.6037
 -0.5735  -0.5716  -0.4796  -0.4712  -0.4615  -0.4464

                    Cartesian Multipole Moments
 -----------------------------------------------------------------
    Charge (ESU x 10^10)
                -0.0000
    Dipole Moment (Debye)
         X      -0.2498      Y      -0.7130      Z       0.3324
       Tot       0.8253
    Quadrupole Moments (Debye-Ang)
        XX     -33.5993     XY      -1.1588     YY     -33.9831
        XZ      -1.3064     YZ      -0.4642     ZZ     -29.9508

 Total job time:  14.50s(wall), 77.04s(cpu)
        *  Thank you very much for using Q-Chem.  Have a nice day.  *
