 Q-Chem 5.3 (devel), Q-Chem, Inc., Pleasanton, CA (2020)
 Q-Chem 5.3.0 for Intel X86 EM64T Linux

User input:
--------------------------------------------------------------
$rem
   JOBTYPE  sp
   EXCHANGE   omegaB97X-D
   BASIS   6-311+G(2df,2pd)
   UNRESTRICTED   True
   max_scf_cycles   250
   geom_opt_max_cycles   1500
   basis2 6-31G*
   scf_algorithm rca_diis
   SYM_IGNORE  TRUE
   print_input   true
   geom_opt_dmax   80
   pop_mulliken false
   XC_GRID 000075000302
$end

$molecule
0 3
N       0.7074810376     1.1751085952     2.4275504469
O       0.4929289036     2.0583683346     1.6589911426
O       1.7030348429     0.7971621279     2.9437368852
N       -0.3106269064     -0.6725362826     3.8381430600
O       -0.1317817219     -1.7794658245     3.5097121691
O       -0.5160450257     0.5163521594     2.7221661862
$end
--------------------------------------------------------------

             Standard Nuclear Orientation (Angstroms)
    I     Atom           X                Y                Z
 ----------------------------------------------------------------
    1      N       0.7074810376     1.1751085952     2.4275504469
    2      O       0.4929289036     2.0583683346     1.6589911426
    3      O       1.7030348429     0.7971621279     2.9437368852
    4      N      -0.3106269064    -0.6725362826     3.8381430600
    5      O      -0.1317817219    -1.7794658245     3.5097121691
    6      O      -0.5160450257     0.5163521594     2.7221661862
 ----------------------------------------------------------------

    7    -409.9261351545      9.32E-05 Convergence criterion met
   10    -410.0814412806      5.54E-06 Convergence criterion met
 Total energy in the final basis set = -410.08144128

                    Orbital Energies (a.u.)
 --------------------------------------------------------------

 Alpha MOs
 -- Occupied --
-19.4120 -19.4005 -19.3502 -19.3482 -14.7735 -14.6206  -1.4448  -1.3697
 -1.2599  -1.2079  -0.8745  -0.7772  -0.7201  -0.7184  -0.6861  -0.6564
 -0.6340  -0.6321  -0.5033  -0.4956  -0.4649  -0.4615  -0.4381  -0.3409

 Beta MOs
 -- Occupied --
-19.3989 -19.3825 -19.3486 -19.3479 -14.7733 -14.6026  -1.4402  -1.3315
 -1.2574  -1.1746  -0.8305  -0.7448  -0.7162  -0.7045  -0.6735  -0.6047
 -0.5831  -0.5585  -0.4798  -0.4710  -0.4627  -0.4470

                    Cartesian Multipole Moments
 -----------------------------------------------------------------
    Charge (ESU x 10^10)
                -0.0000
    Dipole Moment (Debye)
         X      -0.4334      Y      -0.5496      Z       0.4739
       Tot       0.8452
    Quadrupole Moments (Debye-Ang)
        XX     -33.9041     XY      -0.2535     YY     -33.7204
        XZ      -1.7481     YZ       0.0366     ZZ     -28.6690

 Total job time:  15.52s(wall), 82.82s(cpu)
        *  Thank you very much for using Q-Chem.  Have a nice day.  *
