 Q-Chem 5.3 (devel), Q-Chem, Inc., Pleasanton, CA (2020)
 Q-Chem 5.3.0 for Intel X86 EM64T Linux

User input:
--------------------------------------------------------------
$rem
   JOBTYPE  sp
   EXCHANGE   omegaB97X-D
   BASIS   6-311+G(2df,2pd)
   UNRESTRICTED   True
   max_scf_cycles   250
   geom_opt_max_cycles   1500
   basis2 6-31G*
   scf_algorithm rca_diis
   SYM_IGNORE  TRUE
   print_input   true
   geom_opt_dmax   80
   pop_mulliken false
   XC_GRID 000075000302
$end

$molecule
0 3
N       0.8063431443     1.1525185037     2.4546791439
O       -0.0707902104     1.9534678789     2.5320158488
O       1.9756437652     1.2387760785     2.6150382385
N       0.0126594722     -1.0516610548     3.4302638933
O       -1.0270870353     -1.0916292896     3.9617478545
O       0.2482219941     -0.1064830068     2.1065549109
$end
--------------------------------------------------------------

             Standard Nuclear Orientation (Angstroms)
    I     Atom           X                Y                Z
 ----------------------------------------------------------------
    1      N       0.8063431443     1.1525185037     2.4546791439
    2      O      -0.0707902104     1.9534678789     2.5320158488
    3      O       1.9756437652     1.2387760785     2.6150382385
    4      N       0.0126594722    -1.0516610548     3.4302638933
    5      O      -1.0270870353    -1.0916292896     3.9617478545
    6      O       0.2482219941    -0.1064830068     2.1065549109
 ----------------------------------------------------------------

    8    -409.9133253663      9.01E-05 Convergence criterion met
   13    -410.0693118593      4.88E-06 Convergence criterion met
 Total energy in the final basis set = -410.06931186

                    Orbital Energies (a.u.)
 --------------------------------------------------------------

 Alpha MOs
 -- Occupied --
-19.4046 -19.3977 -19.3519 -19.3511 -14.7715 -14.6239  -1.4452  -1.3684
 -1.2607  -1.2062  -0.8753  -0.7784  -0.7279  -0.7148  -0.6788  -0.6508
 -0.6335  -0.6305  -0.5244  -0.4841  -0.4677  -0.4575  -0.4363  -0.3408

 Beta MOs
 -- Occupied --
-19.3907 -19.3808 -19.3523 -19.3486 -14.7717 -14.6056  -1.4408  -1.3315
 -1.2581  -1.1708  -0.8320  -0.7500  -0.7137  -0.7013  -0.6747  -0.5969
 -0.5833  -0.5617  -0.4992  -0.4689  -0.4626  -0.4254

                    Cartesian Multipole Moments
 -----------------------------------------------------------------
    Charge (ESU x 10^10)
                -0.0000
    Dipole Moment (Debye)
         X      -0.0813      Y      -0.6799      Z       0.0417
       Tot       0.6860
    Quadrupole Moments (Debye-Ang)
        XX     -34.5366     XY      -0.3265     YY     -33.5039
        XZ       0.0135     YZ      -2.5951     ZZ     -30.4203

 Total job time:  18.43s(wall), 100.55s(cpu)
        *  Thank you very much for using Q-Chem.  Have a nice day.  *
