 Q-Chem 5.3 (devel), Q-Chem, Inc., Pleasanton, CA (2020)
 Q-Chem 5.3.0 for Intel X86 EM64T Linux

User input:
--------------------------------------------------------------
$rem
   JOBTYPE  sp
   EXCHANGE   omegaB97X-D
   BASIS   6-311+G(2df,2pd)
   UNRESTRICTED   True
   max_scf_cycles   250
   geom_opt_max_cycles   1500
   basis2 6-31G*
   scf_algorithm rca_diis
   SYM_IGNORE  TRUE
   print_input   true
   geom_opt_dmax   80
   pop_mulliken false
   XC_GRID 000075000302
$end

$molecule
0 3
N       0.6891851602     1.1045629675     2.3510370347
O       0.5568917186     2.2559398193     2.0795714198
O       1.6252722996     0.3818756482     2.3076405324
N       -0.4342281647     -0.9770574580     3.2702246142
O       0.0643167954     -1.2647460347     4.2870007284
O       -0.5564466791     0.5944141675     2.8048255605
$end
--------------------------------------------------------------

             Standard Nuclear Orientation (Angstroms)
    I     Atom           X                Y                Z
 ----------------------------------------------------------------
    1      N       0.6891851602     1.1045629675     2.3510370347
    2      O       0.5568917186     2.2559398193     2.0795714198
    3      O       1.6252722996     0.3818756482     2.3076405324
    4      N      -0.4342281647    -0.9770574580     3.2702246142
    5      O       0.0643167954    -1.2647460347     4.2870007284
    6      O      -0.5564466791     0.5944141675     2.8048255605
 ----------------------------------------------------------------

    8    -409.9258022474      6.08E-05 Convergence criterion met
   10    -410.0810342491      6.22E-06 Convergence criterion met
 Total energy in the final basis set = -410.08103425

                    Orbital Energies (a.u.)
 --------------------------------------------------------------

 Alpha MOs
 -- Occupied --
-19.4122 -19.4004 -19.3514 -19.3489 -14.7741 -14.6203  -1.4458  -1.3698
 -1.2609  -1.2080  -0.8751  -0.7768  -0.7205  -0.7188  -0.6869  -0.6573
 -0.6372  -0.6274  -0.5033  -0.4978  -0.4656  -0.4623  -0.4383  -0.3405

 Beta MOs
 -- Occupied --
-19.3992 -19.3824 -19.3493 -19.3489 -14.7739 -14.6023  -1.4411  -1.3317
 -1.2582  -1.1750  -0.8309  -0.7454  -0.7171  -0.7042  -0.6740  -0.6061
 -0.5820  -0.5578  -0.4790  -0.4723  -0.4633  -0.4479

                    Cartesian Multipole Moments
 -----------------------------------------------------------------
    Charge (ESU x 10^10)
                -0.0000
    Dipole Moment (Debye)
         X      -0.4881      Y      -0.6455      Z       0.2329
       Tot       0.8421
    Quadrupole Moments (Debye-Ang)
        XX     -33.7365     XY       0.4945     YY     -33.7816
        XZ      -0.8634     YZ      -0.5896     ZZ     -30.1023

 Total job time:  16.06s(wall), 85.67s(cpu)
        *  Thank you very much for using Q-Chem.  Have a nice day.  *
