 Q-Chem 5.3 (devel), Q-Chem, Inc., Pleasanton, CA (2020)
 Q-Chem 5.3.0 for Intel X86 EM64T Linux

User input:
--------------------------------------------------------------
$rem
   JOBTYPE  sp
   EXCHANGE   omegaB97X-D
   BASIS   6-311+G(2df,2pd)
   UNRESTRICTED   True
   max_scf_cycles   250
   geom_opt_max_cycles   1500
   basis2 6-31G*
   scf_algorithm rca_diis
   SYM_IGNORE  TRUE
   print_input   true
   geom_opt_dmax   80
   pop_mulliken false
   XC_GRID 000075000302
$end

$molecule
0 3
N       0.9104136127     1.1549698903     2.7055200622
O       1.3880057578     2.0245219685     3.3632804407
O       0.5831797307     1.1084555145     1.5692217959
N       -0.7497745640     -0.6556039748     3.3424693521
O       -0.9327511379     -1.5395945539     2.6006973586
O       0.7459177308     0.0022402653     3.5191108805
$end
--------------------------------------------------------------

             Standard Nuclear Orientation (Angstroms)
    I     Atom           X                Y                Z
 ----------------------------------------------------------------
    1      N       0.9104136127     1.1549698903     2.7055200622
    2      O       1.3880057578     2.0245219685     3.3632804407
    3      O       0.5831797307     1.1084555145     1.5692217959
    4      N      -0.7497745640    -0.6556039748     3.3424693521
    5      O      -0.9327511379    -1.5395945539     2.6006973586
    6      O       0.7459177308     0.0022402653     3.5191108805
 ----------------------------------------------------------------

    8    -409.9184548000      6.14E-05 Convergence criterion met
   11    -410.0740058385      9.41E-06 Convergence criterion met
 Total energy in the final basis set = -410.07400584

                    Orbital Energies (a.u.)
 --------------------------------------------------------------

 Alpha MOs
 -- Occupied --
-19.4059 -19.4044 -19.3477 -19.3476 -14.7699 -14.6233  -1.4424  -1.3734
 -1.2576  -1.2043  -0.8757  -0.7782  -0.7238  -0.7143  -0.6790  -0.6559
 -0.6386  -0.6308  -0.5151  -0.4841  -0.4654  -0.4573  -0.4352  -0.3439

 Beta MOs
 -- Occupied --
-19.3917 -19.3872 -19.3481 -19.3455 -14.7700 -14.6056  -1.4382  -1.3345
 -1.2554  -1.1711  -0.8304  -0.7484  -0.7120  -0.7020  -0.6724  -0.5996
 -0.5843  -0.5628  -0.4935  -0.4678  -0.4603  -0.4311

                    Cartesian Multipole Moments
 -----------------------------------------------------------------
    Charge (ESU x 10^10)
                -0.0000
    Dipole Moment (Debye)
         X      -0.4946      Y      -0.7285      Z       0.2616
       Tot       0.9186
    Quadrupole Moments (Debye-Ang)
        XX     -30.8764     XY      -1.4824     YY     -34.0454
        XZ      -2.5496     YZ      -2.3247     ZZ     -32.4734

 Total job time:  16.71s(wall), 89.87s(cpu)
        *  Thank you very much for using Q-Chem.  Have a nice day.  *
