 Q-Chem 5.3 (devel), Q-Chem, Inc., Pleasanton, CA (2020)
 Q-Chem 5.3.0 for Intel X86 EM64T Linux

User input:
--------------------------------------------------------------
$rem
   JOBTYPE  sp
   EXCHANGE   omegaB97X-D
   BASIS   6-311+G(2df,2pd)
   UNRESTRICTED   True
   max_scf_cycles   250
   geom_opt_max_cycles   1500
   basis2 6-31G*
   scf_algorithm rca_diis
   SYM_IGNORE  TRUE
   print_input   true
   geom_opt_dmax   80
   pop_mulliken false
   XC_GRID 000075000302
$end

$molecule
0 3
N       0.9287631657     1.1005871987     2.5083370329
O       0.2204777109     1.6106546242     3.3176742466
O       1.6069172003     1.5526641692     1.6503435197
N       -0.3364218161     -0.7584956380     3.6844428397
O       -1.3655038328     -1.1024979942     3.2510861245
O       0.8907587021     -0.3079232500     2.6884161266
$end
--------------------------------------------------------------

             Standard Nuclear Orientation (Angstroms)
    I     Atom           X                Y                Z
 ----------------------------------------------------------------
    1      N       0.9287631657     1.1005871987     2.5083370329
    2      O       0.2204777109     1.6106546242     3.3176742466
    3      O       1.6069172003     1.5526641692     1.6503435197
    4      N      -0.3364218161    -0.7584956380     3.6844428397
    5      O      -1.3655038328    -1.1024979942     3.2510861245
    6      O       0.8907587021    -0.3079232500     2.6884161266
 ----------------------------------------------------------------

    8    -409.9159960568      6.14E-05 Convergence criterion met
   10    -410.0714667971      5.32E-06 Convergence criterion met
 Total energy in the final basis set = -410.07146680

                    Orbital Energies (a.u.)
 --------------------------------------------------------------

 Alpha MOs
 -- Occupied --
-19.4109 -19.4003 -19.3565 -19.3334 -14.7715 -14.6220  -1.4433  -1.3698
 -1.2601  -1.2046  -0.8768  -0.7743  -0.7191  -0.7172  -0.6827  -0.6586
 -0.6348  -0.6321  -0.5000  -0.4948  -0.4613  -0.4575  -0.4403  -0.3388

 Beta MOs
 -- Occupied --
-19.3969 -19.3829 -19.3551 -19.3335 -14.7712 -14.6035  -1.4385  -1.3322
 -1.2564  -1.1709  -0.8338  -0.7405  -0.7150  -0.7052  -0.6704  -0.6060
 -0.5849  -0.5597  -0.4777  -0.4692  -0.4606  -0.4373

                    Cartesian Multipole Moments
 -----------------------------------------------------------------
    Charge (ESU x 10^10)
                -0.0000
    Dipole Moment (Debye)
         X      -0.1343      Y      -0.7981      Z       0.2431
       Tot       0.8450
    Quadrupole Moments (Debye-Ang)
        XX     -32.5690     XY      -0.3242     YY     -34.2960
        XZ       0.9904     YZ      -2.5587     ZZ     -30.4807

 Total job time:  15.91s(wall), 85.28s(cpu)
        *  Thank you very much for using Q-Chem.  Have a nice day.  *
