 Q-Chem 5.3 (devel), Q-Chem, Inc., Pleasanton, CA (2020)
 Q-Chem 5.3.0 for Intel X86 EM64T Linux

User input:
--------------------------------------------------------------
$rem
   JOBTYPE  sp
   EXCHANGE   omegaB97X-D
   BASIS   6-311+G(2df,2pd)
   UNRESTRICTED   True
   max_scf_cycles   250
   geom_opt_max_cycles   1500
   basis2 6-31G*
   scf_algorithm rca_diis
   SYM_IGNORE  TRUE
   print_input   true
   geom_opt_dmax   80
   pop_mulliken false
   XC_GRID 000075000302
$end

$molecule
0 3
N       0.7895132840     1.1605419268     2.4550803845
O       -0.0398570503     2.0142863123     2.4437154275
O       1.9466296302     1.1820270873     2.7021421171
N       0.0313440725     -1.0710262676     3.3960318929
O       -0.9650281433     -1.1175795381     4.0044895015
O       0.1823893370     -0.0732604109     2.0988405665
$end
--------------------------------------------------------------

             Standard Nuclear Orientation (Angstroms)
    I     Atom           X                Y                Z
 ----------------------------------------------------------------
    1      N       0.7895132840     1.1605419268     2.4550803845
    2      O      -0.0398570503     2.0142863123     2.4437154275
    3      O       1.9466296302     1.1820270873     2.7021421171
    4      N       0.0313440725    -1.0710262676     3.3960318929
    5      O      -0.9650281433    -1.1175795381     4.0044895015
    6      O       0.1823893370    -0.0732604109     2.0988405665
 ----------------------------------------------------------------

    8    -409.9155140147      9.02E-05 Convergence criterion met
   13    -410.0713986549      3.67E-06 Convergence criterion met
 Total energy in the final basis set = -410.07139865

                    Orbital Energies (a.u.)
 --------------------------------------------------------------

 Alpha MOs
 -- Occupied --
-19.4065 -19.3966 -19.3527 -19.3518 -14.7725 -14.6225  -1.4459  -1.3676
 -1.2613  -1.2073  -0.8748  -0.7785  -0.7277  -0.7156  -0.6801  -0.6505
 -0.6329  -0.6307  -0.5247  -0.4851  -0.4680  -0.4571  -0.4381  -0.3400

 Beta MOs
 -- Occupied --
-19.3925 -19.3798 -19.3523 -19.3501 -14.7726 -14.6043  -1.4414  -1.3309
 -1.2587  -1.1718  -0.8320  -0.7499  -0.7148  -0.7019  -0.6749  -0.5964
 -0.5840  -0.5611  -0.4971  -0.4695  -0.4636  -0.4285

                    Cartesian Multipole Moments
 -----------------------------------------------------------------
    Charge (ESU x 10^10)
                 0.0000
    Dipole Moment (Debye)
         X      -0.0784      Y      -0.6539      Z       0.0113
       Tot       0.6586
    Quadrupole Moments (Debye-Ang)
        XX     -34.3880     XY      -0.3249     YY     -33.5038
        XZ      -0.2461     YZ      -2.3179     ZZ     -30.7814

 Total job time:  18.43s(wall), 100.30s(cpu)
        *  Thank you very much for using Q-Chem.  Have a nice day.  *
