 Q-Chem 5.3 (devel), Q-Chem, Inc., Pleasanton, CA (2020)
 Q-Chem 5.3.0 for Intel X86 EM64T Linux

User input:
--------------------------------------------------------------
$rem
   JOBTYPE  sp
   EXCHANGE   omegaB97X-D
   BASIS   6-311+G(2df,2pd)
   UNRESTRICTED   True
   max_scf_cycles   250
   geom_opt_max_cycles   1500
   basis2 6-31G*
   scf_algorithm rca_diis
   SYM_IGNORE  TRUE
   print_input   true
   geom_opt_dmax   80
   pop_mulliken false
   XC_GRID 000075000302
$end

$molecule
0 3
N       0.6642867645     1.0717927722     2.4130417049
O       0.5947029924     2.1635723890     1.9439583896
O       1.5836872203     0.3594677718     2.6314799024
N       -0.6221540173     -0.8449432342     3.4672238983
O       0.3692927979     -1.2853660585     3.9010515244
O       -0.6448246277     0.6304654696     2.7435444704
$end
--------------------------------------------------------------

             Standard Nuclear Orientation (Angstroms)
    I     Atom           X                Y                Z
 ----------------------------------------------------------------
    1      N       0.6642867645     1.0717927722     2.4130417049
    2      O       0.5947029924     2.1635723890     1.9439583896
    3      O       1.5836872203     0.3594677718     2.6314799024
    4      N      -0.6221540173    -0.8449432342     3.4672238983
    5      O       0.3692927979    -1.2853660585     3.9010515244
    6      O      -0.6448246277     0.6304654696     2.7435444704
 ----------------------------------------------------------------

    8    -409.9168705228      8.33E-05 Convergence criterion met
   10    -410.0715857435      6.35E-06 Convergence criterion met
 Total energy in the final basis set = -410.07158574

                    Orbital Energies (a.u.)
 --------------------------------------------------------------

 Alpha MOs
 -- Occupied --
-19.4103 -19.4026 -19.3511 -19.3490 -14.7758 -14.6145  -1.4475  -1.3713
 -1.2626  -1.2065  -0.8752  -0.7799  -0.7213  -0.7128  -0.6860  -0.6606
 -0.6504  -0.6138  -0.5057  -0.5034  -0.4672  -0.4539  -0.4414  -0.3316

 Beta MOs
 -- Occupied --
-19.3977 -19.3835 -19.3490 -19.3486 -14.7761 -14.5965  -1.4428  -1.3320
 -1.2591  -1.1750  -0.8297  -0.7525  -0.7182  -0.6971  -0.6729  -0.6142
 -0.5727  -0.5587  -0.4802  -0.4752  -0.4626  -0.4437

                    Cartesian Multipole Moments
 -----------------------------------------------------------------
    Charge (ESU x 10^10)
                -0.0000
    Dipole Moment (Debye)
         X      -0.4552      Y      -0.6365      Z       0.3353
       Tot       0.8513
    Quadrupole Moments (Debye-Ang)
        XX     -33.8246     XY       0.5770     YY     -33.6746
        XZ      -1.3358     YZ      -0.4827     ZZ     -29.3175

 Total job time:  16.39s(wall), 87.18s(cpu)
        *  Thank you very much for using Q-Chem.  Have a nice day.  *
