 Q-Chem 5.3 (devel), Q-Chem, Inc., Pleasanton, CA (2020)
 Q-Chem 5.3.0 for Intel X86 EM64T Linux

User input:
--------------------------------------------------------------
$rem
   JOBTYPE  sp
   EXCHANGE   omegaB97X-D
   BASIS   6-311+G(2df,2pd)
   UNRESTRICTED   True
   max_scf_cycles   250
   geom_opt_max_cycles   1500
   basis2 6-31G*
   scf_algorithm rca_diis
   SYM_IGNORE  TRUE
   print_input   true
   geom_opt_dmax   80
   pop_mulliken false
   XC_GRID 000075000302
$end

$molecule
0 3
N       0.6947981101     1.1133362889     2.3388754698
O       0.5457664434     2.2672434900     2.0875758017
O       1.6344623090     0.3986644752     2.2570540632
N       -0.3846392156     -0.9893866282     3.2627143596
O       -0.0127753978     -1.2821607180     4.3309587577
O       -0.5326211191     0.5872922020     2.8231214380
$end
--------------------------------------------------------------

             Standard Nuclear Orientation (Angstroms)
    I     Atom           X                Y                Z
 ----------------------------------------------------------------
    1      N       0.6947981101     1.1133362889     2.3388754698
    2      O       0.5457664434     2.2672434900     2.0875758017
    3      O       1.6344623090     0.3986644752     2.2570540632
    4      N      -0.3846392156    -0.9893866282     3.2627143596
    5      O      -0.0127753978    -1.2821607180     4.3309587577
    6      O      -0.5326211191     0.5872922020     2.8231214380
 ----------------------------------------------------------------

    8    -409.9261934343      5.45E-05 Convergence criterion met
   10    -410.0814387536      5.80E-06 Convergence criterion met
 Total energy in the final basis set = -410.08143875

                    Orbital Energies (a.u.)
 --------------------------------------------------------------

 Alpha MOs
 -- Occupied --
-19.4123 -19.4002 -19.3509 -19.3486 -14.7739 -14.6205  -1.4454  -1.3696
 -1.2605  -1.2081  -0.8748  -0.7770  -0.7204  -0.7188  -0.6866  -0.6567
 -0.6352  -0.6302  -0.5025  -0.4974  -0.4652  -0.4622  -0.4381  -0.3408

 Beta MOs
 -- Occupied --
-19.3992 -19.3822 -19.3490 -19.3486 -14.7736 -14.6025  -1.4407  -1.3315
 -1.2579  -1.1748  -0.8307  -0.7449  -0.7168  -0.7045  -0.6738  -0.6052
 -0.5828  -0.5581  -0.4789  -0.4719  -0.4631  -0.4478

                    Cartesian Multipole Moments
 -----------------------------------------------------------------
    Charge (ESU x 10^10)
                -0.0000
    Dipole Moment (Debye)
         X      -0.4669      Y      -0.6559      Z       0.2287
       Tot       0.8369
    Quadrupole Moments (Debye-Ang)
        XX     -33.7146     XY       0.4190     YY     -33.8275
        XZ      -0.6800     YZ      -0.5951     ZZ     -30.1828

 Total job time:  15.80s(wall), 84.47s(cpu)
        *  Thank you very much for using Q-Chem.  Have a nice day.  *
