 Q-Chem 5.3 (devel), Q-Chem, Inc., Pleasanton, CA (2020)
 Q-Chem 5.3.0 for Intel X86 EM64T Linux

User input:
--------------------------------------------------------------
$rem
   JOBTYPE  sp
   EXCHANGE   omegaB97X-D
   BASIS   6-311+G(2df,2pd)
   UNRESTRICTED   True
   max_scf_cycles   250
   geom_opt_max_cycles   1500
   basis2 6-31G*
   scf_algorithm rca_diis
   SYM_IGNORE  TRUE
   print_input   true
   geom_opt_dmax   80
   pop_mulliken false
   XC_GRID 000075000302
$end

$molecule
0 3
N       0.9289531135     1.1299052565     2.6228198729
O       0.8624454704     1.9389702099     3.4933682197
O       0.9925592209     1.2346550381     1.4457892459
N       -0.5920504904     -0.6812523190     3.5427998587
O       -1.1781909884     -1.3599956249     2.7938724242
O       0.9312748042     -0.1672934507     3.2016502687
$end
--------------------------------------------------------------

             Standard Nuclear Orientation (Angstroms)
    I     Atom           X                Y                Z
 ----------------------------------------------------------------
    1      N       0.9289531135     1.1299052565     2.6228198729
    2      O       0.8624454704     1.9389702099     3.4933682197
    3      O       0.9925592209     1.2346550381     1.4457892459
    4      N      -0.5920504904    -0.6812523190     3.5427998587
    5      O      -1.1781909884    -1.3599956249     2.7938724242
    6      O       0.9312748042    -0.1672934507     3.2016502687
 ----------------------------------------------------------------

    8    -409.9108243683      8.19E-05 Convergence criterion met
   13    -410.0667236894      6.14E-06 Convergence criterion met
 Total energy in the final basis set = -410.06672369

                    Orbital Energies (a.u.)
 --------------------------------------------------------------

 Alpha MOs
 -- Occupied --
-19.4034 -19.4014 -19.3556 -19.3403 -14.7692 -14.6266  -1.4429  -1.3715
 -1.2587  -1.2042  -0.8766  -0.7778  -0.7274  -0.7134  -0.6757  -0.6534
 -0.6361  -0.6315  -0.5202  -0.4852  -0.4656  -0.4588  -0.4309  -0.3436

 Beta MOs
 -- Occupied --
-19.3897 -19.3841 -19.3545 -19.3400 -14.7693 -14.6082  -1.4387  -1.3341
 -1.2560  -1.1696  -0.8327  -0.7492  -0.7115  -0.7018  -0.6723  -0.5966
 -0.5852  -0.5642  -0.5000  -0.4686  -0.4586  -0.4219

                    Cartesian Multipole Moments
 -----------------------------------------------------------------
    Charge (ESU x 10^10)
                -0.0000
    Dipole Moment (Debye)
         X      -0.2657      Y      -0.7231      Z       0.2153
       Tot       0.7999
    Quadrupole Moments (Debye-Ang)
        XX     -30.5535     XY      -0.6656     YY     -34.5141
        XZ      -1.2046     YZ      -2.7161     ZZ     -32.5471

 Total job time:  18.61s(wall), 101.41s(cpu)
        *  Thank you very much for using Q-Chem.  Have a nice day.  *
