 Q-Chem 5.3 (devel), Q-Chem, Inc., Pleasanton, CA (2020)
 Q-Chem 5.3.0 for Intel X86 EM64T Linux

User input:
--------------------------------------------------------------
$rem
   JOBTYPE  sp
   EXCHANGE   omegaB97X-D
   BASIS   6-311+G(2df,2pd)
   UNRESTRICTED   True
   max_scf_cycles   250
   geom_opt_max_cycles   1500
   basis2 6-31G*
   scf_algorithm rca_diis
   SYM_IGNORE  TRUE
   print_input   true
   geom_opt_dmax   80
   pop_mulliken false
   XC_GRID 000075000302
$end

$molecule
0 3
N       0.7137131938     1.1891481058     2.4257308044
O       0.4777974529     2.0628429446     1.6525135766
O       1.7164959043     0.8439770184     2.9508051863
N       -0.2574285871     -0.6847013151     3.8348719931
O       -0.2145721478     -1.8099192191     3.5231133448
O       -0.4910146860     0.4936415753     2.7132649848
$end
--------------------------------------------------------------

             Standard Nuclear Orientation (Angstroms)
    I     Atom           X                Y                Z
 ----------------------------------------------------------------
    1      N       0.7137131938     1.1891481058     2.4257308044
    2      O       0.4777974529     2.0628429446     1.6525135766
    3      O       1.7164959043     0.8439770184     2.9508051863
    4      N      -0.2574285871    -0.6847013151     3.8348719931
    5      O      -0.2145721478    -1.8099192191     3.5231133448
    6      O      -0.4910146860     0.4936415753     2.7132649848
 ----------------------------------------------------------------

    7    -409.9261105246      8.87E-05 Convergence criterion met
   10    -410.0813941709      5.49E-06 Convergence criterion met
 Total energy in the final basis set = -410.08139417

                    Orbital Energies (a.u.)
 --------------------------------------------------------------

 Alpha MOs
 -- Occupied --
-19.4121 -19.4004 -19.3496 -19.3478 -14.7734 -14.6206  -1.4445  -1.3696
 -1.2595  -1.2080  -0.8742  -0.7775  -0.7200  -0.7182  -0.6857  -0.6559
 -0.6350  -0.6319  -0.5031  -0.4954  -0.4646  -0.4611  -0.4382  -0.3403

 Beta MOs
 -- Occupied --
-19.3988 -19.3824 -19.3482 -19.3475 -14.7732 -14.6025  -1.4399  -1.3313
 -1.2571  -1.1745  -0.8304  -0.7445  -0.7159  -0.7046  -0.6732  -0.6040
 -0.5832  -0.5592  -0.4798  -0.4707  -0.4624  -0.4467

                    Cartesian Multipole Moments
 -----------------------------------------------------------------
    Charge (ESU x 10^10)
                -0.0000
    Dipole Moment (Debye)
         X      -0.4096      Y      -0.5629      Z       0.4761
       Tot       0.8434
    Quadrupole Moments (Debye-Ang)
        XX     -33.8909     XY      -0.3949     YY     -33.7812
        XZ      -1.6707     YZ       0.0207     ZZ     -28.6860

 Total job time:  15.46s(wall), 82.31s(cpu)
        *  Thank you very much for using Q-Chem.  Have a nice day.  *
