 Q-Chem 5.3 (devel), Q-Chem, Inc., Pleasanton, CA (2020)
 Q-Chem 5.3.0 for Intel X86 EM64T Linux

User input:
--------------------------------------------------------------
$rem
   JOBTYPE  sp
   EXCHANGE   omegaB97X-D
   BASIS   6-311+G(2df,2pd)
   UNRESTRICTED   True
   max_scf_cycles   250
   geom_opt_max_cycles   1500
   basis2 6-31G*
   scf_algorithm rca_diis
   SYM_IGNORE  TRUE
   print_input   true
   geom_opt_dmax   80
   pop_mulliken false
   XC_GRID 000075000302
$end

$molecule
0 3
N       0.9335958109     1.1150574018     2.5693146839
O       0.5549626776     1.7929095597     3.4715436969
O       1.2696956348     1.3788245447     1.4657372497
N       -0.4866380763     -0.7018975646     3.6284262250
O       -1.2836810239     -1.2492718732     2.9724922599
O       0.9570561071     -0.2406329586     2.9927857745
$end
--------------------------------------------------------------

             Standard Nuclear Orientation (Angstroms)
    I     Atom           X                Y                Z
 ----------------------------------------------------------------
    1      N       0.9335958109     1.1150574018     2.5693146839
    2      O       0.5549626776     1.7929095597     3.4715436969
    3      O       1.2696956348     1.3788245447     1.4657372497
    4      N      -0.4866380763    -0.7018975646     3.6284262250
    5      O      -1.2836810239    -1.2492718732     2.9724922599
    6      O       0.9570561071    -0.2406329586     2.9927857745
 ----------------------------------------------------------------

    8    -409.9143972180      7.22E-05 Convergence criterion met
   12    -410.0699976702      4.15E-06 Convergence criterion met
 Total energy in the final basis set = -410.06999767

                    Orbital Energies (a.u.)
 --------------------------------------------------------------

 Alpha MOs
 -- Occupied --
-19.4091 -19.3989 -19.3583 -19.3377 -14.7711 -14.6231  -1.4440  -1.3694
 -1.2605  -1.2057  -0.8763  -0.7766  -0.7248  -0.7153  -0.6788  -0.6530
 -0.6364  -0.6318  -0.5166  -0.4880  -0.4638  -0.4585  -0.4364  -0.3411

 Beta MOs
 -- Occupied --
-19.3948 -19.3820 -19.3566 -19.3379 -14.7710 -14.6048  -1.4394  -1.3325
 -1.2570  -1.1709  -0.8340  -0.7463  -0.7139  -0.7034  -0.6716  -0.5978
 -0.5873  -0.5623  -0.4904  -0.4692  -0.4605  -0.4295

                    Cartesian Multipole Moments
 -----------------------------------------------------------------
    Charge (ESU x 10^10)
                -0.0000
    Dipole Moment (Debye)
         X      -0.1337      Y      -0.7160      Z       0.1993
       Tot       0.7552
    Quadrupole Moments (Debye-Ang)
        XX     -31.2077     XY      -0.3512     YY     -34.3778
        XZ       0.0431     YZ      -2.5267     ZZ     -32.0267

 Total job time:  17.65s(wall), 95.63s(cpu)
        *  Thank you very much for using Q-Chem.  Have a nice day.  *
