 Q-Chem 5.3 (devel), Q-Chem, Inc., Pleasanton, CA (2020)
 Q-Chem 5.3.0 for Intel X86 EM64T Linux

User input:
--------------------------------------------------------------
$rem
   JOBTYPE  sp
   EXCHANGE   omegaB97X-D
   BASIS   6-311+G(2df,2pd)
   UNRESTRICTED   True
   max_scf_cycles   250
   geom_opt_max_cycles   1500
   basis2 6-31G*
   scf_algorithm rca_diis
   SYM_IGNORE  TRUE
   print_input   true
   geom_opt_dmax   80
   pop_mulliken false
   XC_GRID 000075000302
$end

$molecule
0 3
N       0.8903621680     1.1725004406     2.7358763950
O       1.6562605399     1.9191041783     3.2582233411
O       0.4126183711     1.1553833539     1.6533389959
N       -0.8131418898     -0.6502233140     3.2004826157
O       -0.7512820031     -1.6478173505     2.5954000152
O       0.5501739440     0.1460418016     3.6569785272
$end
--------------------------------------------------------------

             Standard Nuclear Orientation (Angstroms)
    I     Atom           X                Y                Z
 ----------------------------------------------------------------
    1      N       0.8903621680     1.1725004406     2.7358763950
    2      O       1.6562605399     1.9191041783     3.2582233411
    3      O       0.4126183711     1.1553833539     1.6533389959
    4      N      -0.8131418898    -0.6502233140     3.2004826157
    5      O      -0.7512820031    -1.6478173505     2.5954000152
    6      O       0.5501739440     0.1460418016     3.6569785272
 ----------------------------------------------------------------

    7    -409.9249474285      9.05E-05 Convergence criterion met
   10    -410.0802903772      6.66E-06 Convergence criterion met
 Total energy in the final basis set = -410.08029038

                    Orbital Energies (a.u.)
 --------------------------------------------------------------

 Alpha MOs
 -- Occupied --
-19.4106 -19.4020 -19.3496 -19.3480 -14.7727 -14.6208  -1.4442  -1.3705
 -1.2594  -1.2070  -0.8746  -0.7775  -0.7206  -0.7174  -0.6847  -0.6565
 -0.6351  -0.6316  -0.5080  -0.4907  -0.4655  -0.4598  -0.4381  -0.3415

 Beta MOs
 -- Occupied --
-19.3976 -19.3836 -19.3484 -19.3473 -14.7725 -14.6029  -1.4397  -1.3320
 -1.2569  -1.1739  -0.8303  -0.7457  -0.7150  -0.7039  -0.6732  -0.6039
 -0.5830  -0.5591  -0.4835  -0.4698  -0.4623  -0.4433

                    Cartesian Multipole Moments
 -----------------------------------------------------------------
    Charge (ESU x 10^10)
                -0.0000
    Dipole Moment (Debye)
         X      -0.5414      Y      -0.6322      Z       0.2488
       Tot       0.8687
    Quadrupole Moments (Debye-Ang)
        XX     -31.7125     XY      -1.8201     YY     -33.5993
        XZ      -2.6452     YZ      -1.7076     ZZ     -32.3288

 Total job time:  15.63s(wall), 83.48s(cpu)
        *  Thank you very much for using Q-Chem.  Have a nice day.  *
