 Q-Chem 5.3 (devel), Q-Chem, Inc., Pleasanton, CA (2020)
 Q-Chem 5.3.0 for Intel X86 EM64T Linux

User input:
--------------------------------------------------------------
$rem
   JOBTYPE  sp
   EXCHANGE   omegaB97X-D
   BASIS   6-311+G(2df,2pd)
   UNRESTRICTED   True
   max_scf_cycles   250
   geom_opt_max_cycles   1500
   basis2 6-31G*
   scf_algorithm rca_diis
   SYM_IGNORE  TRUE
   print_input   true
   geom_opt_dmax   80
   pop_mulliken false
   XC_GRID 000075000302
$end

$molecule
0 3
N       0.9331829659     1.1064219465     2.5365854063
O       0.3740532996     1.6914713038     3.4094857760
O       1.4459945465     1.4756005171     1.5360101636
N       -0.4128627677     -0.7242627456     3.6665683010
O       -1.3346837913     -1.1740029841     3.1069924088
O       0.9393068770     -0.2802389278     2.8446578342
$end
--------------------------------------------------------------

             Standard Nuclear Orientation (Angstroms)
    I     Atom           X                Y                Z
 ----------------------------------------------------------------
    1      N       0.9331829659     1.1064219465     2.5365854063
    2      O       0.3740532996     1.6914713038     3.4094857760
    3      O       1.4459945465     1.4756005171     1.5360101636
    4      N      -0.4128627677    -0.7242627456     3.6665683010
    5      O      -1.3346837913    -1.1740029841     3.1069924088
    6      O       0.9393068770    -0.2802389278     2.8446578342
 ----------------------------------------------------------------

    8    -409.9157388350      6.64E-05 Convergence criterion met
   11    -410.0712172471      6.56E-06 Convergence criterion met
 Total energy in the final basis set = -410.07121725

                    Orbital Energies (a.u.)
 --------------------------------------------------------------

 Alpha MOs
 -- Occupied --
-19.4107 -19.3997 -19.3573 -19.3349 -14.7713 -14.6225  -1.4436  -1.3697
 -1.2602  -1.2052  -0.8767  -0.7753  -0.7217  -0.7162  -0.6808  -0.6557
 -0.6369  -0.6319  -0.5084  -0.4906  -0.4622  -0.4578  -0.4387  -0.3401

 Beta MOs
 -- Occupied --
-19.3964 -19.3826 -19.3558 -19.3351 -14.7711 -14.6041  -1.4388  -1.3326
 -1.2566  -1.1710  -0.8341  -0.7430  -0.7146  -0.7044  -0.6706  -0.6020
 -0.5868  -0.5614  -0.4826  -0.4688  -0.4608  -0.4345

                    Cartesian Multipole Moments
 -----------------------------------------------------------------
    Charge (ESU x 10^10)
                -0.0000
    Dipole Moment (Debye)
         X      -0.1320      Y      -0.7615      Z       0.2269
       Tot       0.8055
    Quadrupole Moments (Debye-Ang)
        XX     -31.8593     XY      -0.2920     YY     -34.3294
        XZ       0.5947     YZ      -2.5035     ZZ     -31.2560

 Total job time:  16.97s(wall), 90.13s(cpu)
        *  Thank you very much for using Q-Chem.  Have a nice day.  *
