 Q-Chem 5.3 (devel), Q-Chem, Inc., Pleasanton, CA (2020)
 Q-Chem 5.3.0 for Intel X86 EM64T Linux

User input:
--------------------------------------------------------------
$rem
   JOBTYPE  sp
   EXCHANGE   omegaB97X-D
   BASIS   6-311+G(2df,2pd)
   UNRESTRICTED   True
   max_scf_cycles   250
   geom_opt_max_cycles   1500
   basis2 6-31G*
   scf_algorithm rca_diis
   SYM_IGNORE  TRUE
   print_input   true
   geom_opt_dmax   80
   pop_mulliken false
   XC_GRID 000075000302
$end

$molecule
0 3
N       0.6817458752     1.1189403448     2.4335595660
O       0.5489889632     2.0655105491     1.7241624697
O       1.6414246623     0.5976086719     2.8892450529
N       -0.5026600151     -0.6787687531     3.7772602719
O       0.1766785809     -1.5988137847     3.5381751983
O       -0.6011869363     0.5905120818     2.7378973313
$end
--------------------------------------------------------------

             Standard Nuclear Orientation (Angstroms)
    I     Atom           X                Y                Z
 ----------------------------------------------------------------
    1      N       0.6817458752     1.1189403448     2.4335595660
    2      O       0.5489889632     2.0655105491     1.7241624697
    3      O       1.6414246623     0.5976086719     2.8892450529
    4      N      -0.5026600151    -0.6787687531     3.7772602719
    5      O       0.1766785809    -1.5988137847     3.5381751983
    6      O      -0.6011869363     0.5905120818     2.7378973313
 ----------------------------------------------------------------

    8    -409.9233481540      7.30E-05 Convergence criterion met
   10    -410.0783859164      6.97E-06 Convergence criterion met
 Total energy in the final basis set = -410.07838592

                    Orbital Energies (a.u.)
 --------------------------------------------------------------

 Alpha MOs
 -- Occupied --
-19.4117 -19.4015 -19.3514 -19.3487 -14.7744 -14.6190  -1.4462  -1.3706
 -1.2613  -1.2074  -0.8755  -0.7770  -0.7201  -0.7177  -0.6868  -0.6591
 -0.6421  -0.6213  -0.5045  -0.4992  -0.4663  -0.4602  -0.4395  -0.3381

 Beta MOs
 -- Occupied --
-19.3990 -19.3830 -19.3491 -19.3488 -14.7743 -14.6012  -1.4415  -1.3320
 -1.2584  -1.1751  -0.8308  -0.7472  -0.7171  -0.7021  -0.6739  -0.6091
 -0.5791  -0.5574  -0.4802  -0.4729  -0.4631  -0.4463

                    Cartesian Multipole Moments
 -----------------------------------------------------------------
    Charge (ESU x 10^10)
                -0.0000
    Dipole Moment (Debye)
         X      -0.4988      Y      -0.5628      Z       0.4363
       Tot       0.8694
    Quadrupole Moments (Debye-Ang)
        XX     -33.8921     XY       0.2258     YY     -33.5488
        XZ      -1.8999     YZ      -0.1065     ZZ     -28.8214

 Total job time:  16.26s(wall), 86.65s(cpu)
        *  Thank you very much for using Q-Chem.  Have a nice day.  *
