 Q-Chem 5.3 (devel), Q-Chem, Inc., Pleasanton, CA (2020)
 Q-Chem 5.3.0 for Intel X86 EM64T Linux

User input:
--------------------------------------------------------------
$rem
   JOBTYPE  sp
   EXCHANGE   omegaB97X-D
   BASIS   6-311+G(2df,2pd)
   UNRESTRICTED   True
   max_scf_cycles   250
   geom_opt_max_cycles   1500
   basis2 6-31G*
   scf_algorithm rca_diis
   SYM_IGNORE  TRUE
   print_input   true
   geom_opt_dmax   80
   pop_mulliken false
   XC_GRID 000075000302
$end

$molecule
0 3
N       0.7355004671     1.2494449154     2.4237928320
O       0.3922558755     2.1215066834     1.6899296209
O       1.7567849644     1.0399563730     2.9837141450
N       0.0284383654     -0.8472753216     3.6663443733
O       -0.6204148598     -1.8166041653     3.7336982575
O       -0.3475736825     0.3479606249     2.6028206612
$end
--------------------------------------------------------------

             Standard Nuclear Orientation (Angstroms)
    I     Atom           X                Y                Z
 ----------------------------------------------------------------
    1      N       0.7355004671     1.2494449154     2.4237928320
    2      O       0.3922558755     2.1215066834     1.6899296209
    3      O       1.7567849644     1.0399563730     2.9837141450
    4      N       0.0284383654    -0.8472753216     3.6663443733
    5      O      -0.6204148598    -1.8166041653     3.7336982575
    6      O      -0.3475736825     0.3479606249     2.6028206612
 ----------------------------------------------------------------

    8    -409.9243630509      9.86E-05 Convergence criterion met
    9    -410.0797176086      9.30E-06 Convergence criterion met
 Total energy in the final basis set = -410.07971761

                    Orbital Energies (a.u.)
 --------------------------------------------------------------

 Alpha MOs
 -- Occupied --
-19.4134 -19.4007 -19.3478 -19.3469 -14.7754 -14.6200  -1.4440  -1.3695
 -1.2589  -1.2095  -0.8731  -0.7793  -0.7196  -0.7183  -0.6841  -0.6536
 -0.6472  -0.6232  -0.5067  -0.4955  -0.4640  -0.4602  -0.4391  -0.3339

 Beta MOs
 -- Occupied --
-19.3992 -19.3831 -19.3474 -19.3459 -14.7758 -14.6014  -1.4400  -1.3315
 -1.2569  -1.1751  -0.8313  -0.7444  -0.7157  -0.7055  -0.6729  -0.6036
 -0.5761  -0.5689  -0.4798  -0.4709  -0.4615  -0.4462

                    Cartesian Multipole Moments
 -----------------------------------------------------------------
    Charge (ESU x 10^10)
                -0.0000
    Dipole Moment (Debye)
         X      -0.2811      Y      -0.6767      Z       0.3889
       Tot       0.8295
    Quadrupole Moments (Debye-Ang)
        XX     -33.6953     XY      -1.0537     YY     -34.0001
        XZ      -1.3295     YZ      -0.3261     ZZ     -29.4874

 Total job time:  14.53s(wall), 77.23s(cpu)
        *  Thank you very much for using Q-Chem.  Have a nice day.  *
