 Q-Chem 5.3 (devel), Q-Chem, Inc., Pleasanton, CA (2020)
 Q-Chem 5.3.0 for Intel X86 EM64T Linux

User input:
--------------------------------------------------------------
$rem
   JOBTYPE  sp
   EXCHANGE   omegaB97X-D
   BASIS   6-311+G(2df,2pd)
   UNRESTRICTED   True
   max_scf_cycles   250
   geom_opt_max_cycles   1500
   basis2 6-31G*
   scf_algorithm rca_diis
   SYM_IGNORE  TRUE
   print_input   true
   geom_opt_dmax   80
   pop_mulliken false
   XC_GRID 000075000302
$end

$molecule
0 3
N       0.7244906988     1.1906803334     2.4625729037
O       0.1743257131     2.1809781649     2.0972066723
O       1.7575297898     1.0139559749     3.0121346273
N       0.0674328153     -1.1295549433     3.2530728082
O       -0.6921286436     -1.2310730889     4.1350625570
O       -0.0866592433     0.0700026689     2.1402503216
$end
--------------------------------------------------------------

             Standard Nuclear Orientation (Angstroms)
    I     Atom           X                Y                Z
 ----------------------------------------------------------------
    1      N       0.7244906988     1.1906803334     2.4625729037
    2      O       0.1743257131     2.1809781649     2.0972066723
    3      O       1.7575297898     1.0139559749     3.0121346273
    4      N       0.0674328153    -1.1295549433     3.2530728082
    5      O      -0.6921286436    -1.2310730889     4.1350625570
    6      O      -0.0866592433     0.0700026689     2.1402503216
 ----------------------------------------------------------------

    8    -409.9240220527      6.87E-05 Convergence criterion met
   10    -410.0793602132      8.51E-06 Convergence criterion met
 Total energy in the final basis set = -410.07936021

                    Orbital Energies (a.u.)
 --------------------------------------------------------------

 Alpha MOs
 -- Occupied --
-19.4118 -19.3974 -19.3522 -19.3496 -14.7741 -14.6207  -1.4459  -1.3680
 -1.2610  -1.2089  -0.8743  -0.7776  -0.7236  -0.7178  -0.6842  -0.6534
 -0.6346  -0.6312  -0.5123  -0.4913  -0.4665  -0.4605  -0.4385  -0.3399

 Beta MOs
 -- Occupied --
-19.3980 -19.3802 -19.3501 -19.3498 -14.7739 -14.6025  -1.4412  -1.3308
 -1.2584  -1.1743  -0.8314  -0.7464  -0.7168  -0.7040  -0.6741  -0.6007
 -0.5848  -0.5596  -0.4834  -0.4706  -0.4647  -0.4431

                    Cartesian Multipole Moments
 -----------------------------------------------------------------
    Charge (ESU x 10^10)
                -0.0000
    Dipole Moment (Debye)
         X      -0.1410      Y      -0.7307      Z       0.0219
       Tot       0.7445
    Quadrupole Moments (Debye-Ang)
        XX     -33.5037     XY      -0.5823     YY     -33.6430
        XZ      -1.2976     YZ      -1.4935     ZZ     -31.6783

 Total job time:  15.71s(wall), 83.90s(cpu)
        *  Thank you very much for using Q-Chem.  Have a nice day.  *
