 Q-Chem 5.3 (devel), Q-Chem, Inc., Pleasanton, CA (2020)
 Q-Chem 5.3.0 for Intel X86 EM64T Linux

User input:
--------------------------------------------------------------
$rem
   JOBTYPE  sp
   EXCHANGE   omegaB97X-D
   BASIS   6-311+G(2df,2pd)
   UNRESTRICTED   True
   max_scf_cycles   250
   geom_opt_max_cycles   1500
   basis2 6-31G*
   scf_algorithm rca_diis
   SYM_IGNORE  TRUE
   print_input   true
   geom_opt_dmax   80
   pop_mulliken false
   XC_GRID 000075000302
$end

$molecule
0 3
N       0.9153182501     1.1498289973     2.6911907499
O       1.2875096256     2.0311481562     3.3994378181
O       0.6541042417     1.1160035843     1.5374826265
N       -0.7214385286     -0.6602408943     3.3874530104
O       -0.9885887457     -1.5033847266     2.6239841502
O       0.7980862869     -0.0383660070     3.4607515349
$end
--------------------------------------------------------------

             Standard Nuclear Orientation (Angstroms)
    I     Atom           X                Y                Z
 ----------------------------------------------------------------
    1      N       0.9153182501     1.1498289973     2.6911907499
    2      O       1.2875096256     2.0311481562     3.3994378181
    3      O       0.6541042417     1.1160035843     1.5374826265
    4      N      -0.7214385286    -0.6602408943     3.3874530104
    5      O      -0.9885887457    -1.5033847266     2.6239841502
    6      O       0.7980862869    -0.0383660070     3.4607515349
 ----------------------------------------------------------------

    8    -409.9156049512      6.57E-05 Convergence criterion met
   13    -410.0713255484      5.16E-06 Convergence criterion met
 Total energy in the final basis set = -410.07132555

                    Orbital Energies (a.u.)
 --------------------------------------------------------------

 Alpha MOs
 -- Occupied --
-19.4067 -19.4021 -19.3480 -19.3462 -14.7689 -14.6251  -1.4417  -1.3743
 -1.2570  -1.2032  -0.8763  -0.7782  -0.7250  -0.7132  -0.6771  -0.6558
 -0.6393  -0.6308  -0.5157  -0.4832  -0.4652  -0.4577  -0.4327  -0.3449

 Beta MOs
 -- Occupied --
-19.3895 -19.3882 -19.3483 -19.3443 -14.7690 -14.6072  -1.4377  -1.3354
 -1.2548  -1.1700  -0.8306  -0.7490  -0.7110  -0.7015  -0.6721  -0.5983
 -0.5847  -0.5641  -0.4967  -0.4671  -0.4594  -0.4269

                    Cartesian Multipole Moments
 -----------------------------------------------------------------
    Charge (ESU x 10^10)
                -0.0000
    Dipole Moment (Debye)
         X      -0.4896      Y      -0.7552      Z       0.2643
       Tot       0.9381
    Quadrupole Moments (Debye-Ang)
        XX     -30.6707     XY      -1.3129     YY     -34.1851
        XZ      -2.4840     YZ      -2.5089     ZZ     -32.5030

 Total job time:  18.62s(wall), 101.10s(cpu)
        *  Thank you very much for using Q-Chem.  Have a nice day.  *
