 Q-Chem 5.3 (devel), Q-Chem, Inc., Pleasanton, CA (2020)
 Q-Chem 5.3.0 for Intel X86 EM64T Linux

User input:
--------------------------------------------------------------
$rem
   JOBTYPE  sp
   EXCHANGE   omegaB97X-D
   BASIS   6-311+G(2df,2pd)
   UNRESTRICTED   True
   max_scf_cycles   250
   geom_opt_max_cycles   1500
   basis2 6-31G*
   scf_algorithm rca_diis
   SYM_IGNORE  TRUE
   print_input   true
   geom_opt_dmax   80
   pop_mulliken false
   XC_GRID 000075000302
$end

$molecule
0 3
N       0.7726128646     1.1684218305     2.4559970367
O       0.0013342142     2.0694504405     2.3552971022
O       1.9083885533     1.1296799076     2.7860455165
N       0.0467754164     -1.0884920685     3.3613182791
O       -0.9001506128     -1.1447487943     4.0434559022
O       0.1160306944     -0.0393222058     2.0981860533
$end
--------------------------------------------------------------

             Standard Nuclear Orientation (Angstroms)
    I     Atom           X                Y                Z
 ----------------------------------------------------------------
    1      N       0.7726128646     1.1684218305     2.4559970367
    2      O       0.0013342142     2.0694504405     2.3552971022
    3      O       1.9083885533     1.1296799076     2.7860455165
    4      N       0.0467754164    -1.0884920685     3.3613182791
    5      O      -0.9001506128    -1.1447487943     4.0434559022
    6      O       0.1160306944    -0.0393222058     2.0981860533
 ----------------------------------------------------------------

    8    -409.9178868871      8.72E-05 Convergence criterion met
   12    -410.0736296885      9.05E-06 Convergence criterion met
 Total energy in the final basis set = -410.07362969

                    Orbital Energies (a.u.)
 --------------------------------------------------------------

 Alpha MOs
 -- Occupied --
-19.4084 -19.3962 -19.3533 -19.3514 -14.7732 -14.6217  -1.4462  -1.3673
 -1.2615  -1.2082  -0.8746  -0.7784  -0.7271  -0.7162  -0.6811  -0.6507
 -0.6333  -0.6307  -0.5234  -0.4862  -0.4679  -0.4575  -0.4389  -0.3397

 Beta MOs
 -- Occupied --
-19.3943 -19.3794 -19.3519 -19.3507 -14.7733 -14.6035  -1.4416  -1.3307
 -1.2589  -1.1726  -0.8320  -0.7494  -0.7156  -0.7025  -0.6748  -0.5966
 -0.5848  -0.5607  -0.4943  -0.4697  -0.4644  -0.4321

                    Cartesian Multipole Moments
 -----------------------------------------------------------------
    Charge (ESU x 10^10)
                -0.0000
    Dipole Moment (Debye)
         X      -0.0852      Y      -0.6529      Z      -0.0037
       Tot       0.6584
    Quadrupole Moments (Debye-Ang)
        XX     -34.1897     XY      -0.3437     YY     -33.5340
        XZ      -0.5243     YZ      -2.0827     ZZ     -31.0770

 Total job time:  17.54s(wall), 94.87s(cpu)
        *  Thank you very much for using Q-Chem.  Have a nice day.  *
