 Q-Chem 5.3 (devel), Q-Chem, Inc., Pleasanton, CA (2020)
 Q-Chem 5.3.0 for Intel X86 EM64T Linux

User input:
--------------------------------------------------------------
$rem
   JOBTYPE  sp
   EXCHANGE   omegaB97X-D
   BASIS   6-311+G(2df,2pd)
   UNRESTRICTED   True
   max_scf_cycles   250
   geom_opt_max_cycles   1500
   basis2 6-31G*
   scf_algorithm rca_diis
   SYM_IGNORE  TRUE
   print_input   true
   geom_opt_dmax   80
   pop_mulliken false
   XC_GRID 000075000302
$end

$molecule
0 3
N       0.6783811540     1.0885628753     2.3747350953
O       0.5757941919     2.2291807195     2.0501882757
O       1.6066863399     0.3557188132     2.4148401208
N       -0.5211132421     -0.9430643444     3.3095136437
O       0.2026495674     -1.2447139071     4.1757240095
O       -0.5974068810     0.6093049534     2.7752987450
$end
--------------------------------------------------------------

             Standard Nuclear Orientation (Angstroms)
    I     Atom           X                Y                Z
 ----------------------------------------------------------------
    1      N       0.6783811540     1.0885628753     2.3747350953
    2      O       0.5757941919     2.2291807195     2.0501882757
    3      O       1.6066863399     0.3557188132     2.4148401208
    4      N      -0.5211132421    -0.9430643444     3.3095136437
    5      O       0.2026495674    -1.2447139071     4.1757240095
    6      O      -0.5974068810     0.6093049534     2.7752987450
 ----------------------------------------------------------------

    8    -409.9239467526      7.27E-05 Convergence criterion met
   10    -410.0790406890      7.02E-06 Convergence criterion met
 Total energy in the final basis set = -410.07904069

                    Orbital Energies (a.u.)
 --------------------------------------------------------------

 Alpha MOs
 -- Occupied --
-19.4121 -19.4010 -19.3519 -19.3490 -14.7745 -14.6193  -1.4464  -1.3703
 -1.2615  -1.2078  -0.8755  -0.7768  -0.7207  -0.7180  -0.6871  -0.6588
 -0.6413  -0.6219  -0.5047  -0.4993  -0.4664  -0.4611  -0.4392  -0.3383

 Beta MOs
 -- Occupied --
-19.3993 -19.3827 -19.3494 -19.3492 -14.7744 -14.6014  -1.4417  -1.3320
 -1.2586  -1.1752  -0.8310  -0.7468  -0.7175  -0.7028  -0.6741  -0.6085
 -0.5796  -0.5576  -0.4794  -0.4732  -0.4633  -0.4473

                    Cartesian Multipole Moments
 -----------------------------------------------------------------
    Charge (ESU x 10^10)
                -0.0000
    Dipole Moment (Debye)
         X      -0.5139      Y      -0.6341      Z       0.2617
       Tot       0.8571
    Quadrupole Moments (Debye-Ang)
        XX     -33.7654     XY       0.5945     YY     -33.7198
        XZ      -1.1622     YZ      -0.5808     ZZ     -29.8395

 Total job time:  16.20s(wall), 86.39s(cpu)
        *  Thank you very much for using Q-Chem.  Have a nice day.  *
