 Q-Chem 5.3 (devel), Q-Chem, Inc., Pleasanton, CA (2020)
 Q-Chem 5.3.0 for Intel X86 EM64T Linux

User input:
--------------------------------------------------------------
$rem
   JOBTYPE  sp
   EXCHANGE   omegaB97X-D
   BASIS   6-311+G(2df,2pd)
   UNRESTRICTED   True
   max_scf_cycles   250
   geom_opt_max_cycles   1500
   basis2 6-31G*
   scf_algorithm rca_diis
   SYM_IGNORE  TRUE
   print_input   true
   geom_opt_dmax   80
   pop_mulliken false
   XC_GRID 000075000302
$end

$molecule
0 3
N       0.7343310412     1.2433792409     2.4224812467
O       0.4047354312     2.1097714844     1.6757584040
O       1.7557968401     1.0198044618     2.9765943130
N       -0.0101702180     -0.8125776499     3.7104509819
O       -0.5716282840     -1.8369510232     3.6865869309
O       -0.3680736803     0.3715625959     2.6284280135
$end
--------------------------------------------------------------

             Standard Nuclear Orientation (Angstroms)
    I     Atom           X                Y                Z
 ----------------------------------------------------------------
    1      N       0.7343310412     1.2433792409     2.4224812467
    2      O       0.4047354312     2.1097714844     1.6757584040
    3      O       1.7557968401     1.0198044618     2.9765943130
    4      N      -0.0101702180    -0.8125776499     3.7104509819
    5      O      -0.5716282840    -1.8369510232     3.6865869309
    6      O      -0.3680736803     0.3715625959     2.6284280135
 ----------------------------------------------------------------

    8    -409.9246108810      9.67E-05 Convergence criterion met
    9    -410.0799129326      9.43E-06 Convergence criterion met
 Total energy in the final basis set = -410.07991293

                    Orbital Energies (a.u.)
 --------------------------------------------------------------

 Alpha MOs
 -- Occupied --
-19.4133 -19.4006 -19.3479 -19.3468 -14.7750 -14.6200  -1.4439  -1.3695
 -1.2588  -1.2093  -0.8732  -0.7790  -0.7196  -0.7182  -0.6842  -0.6539
 -0.6459  -0.6240  -0.5060  -0.4954  -0.4640  -0.4601  -0.4390  -0.3346

 Beta MOs
 -- Occupied --
-19.3992 -19.3829 -19.3473 -19.3460 -14.7753 -14.6014  -1.4398  -1.3314
 -1.2568  -1.1749  -0.8311  -0.7443  -0.7156  -0.7053  -0.6729  -0.6035
 -0.5781  -0.5667  -0.4798  -0.4708  -0.4615  -0.4461

                    Cartesian Multipole Moments
 -----------------------------------------------------------------
    Charge (ESU x 10^10)
                -0.0000
    Dipole Moment (Debye)
         X      -0.2992      Y      -0.6583      Z       0.4143
       Tot       0.8334
    Quadrupole Moments (Debye-Ang)
        XX     -33.7374     XY      -0.9777     YY     -33.9890
        XZ      -1.3609     YZ      -0.2576     ZZ     -29.2774

 Total job time:  14.54s(wall), 76.98s(cpu)
        *  Thank you very much for using Q-Chem.  Have a nice day.  *
