 Q-Chem 5.3 (devel), Q-Chem, Inc., Pleasanton, CA (2020)
 Q-Chem 5.3.0 for Intel X86 EM64T Linux

User input:
--------------------------------------------------------------
$rem
   JOBTYPE  sp
   EXCHANGE   omegaB97X-D
   BASIS   6-311+G(2df,2pd)
   UNRESTRICTED   True
   max_scf_cycles   250
   geom_opt_max_cycles   1500
   basis2 6-31G*
   scf_algorithm rca_diis
   SYM_IGNORE  TRUE
   print_input   true
   geom_opt_dmax   80
   pop_mulliken false
   XC_GRID 000075000302
$end

$molecule
0 3
N       0.6943328793     1.1462923424     2.4311619241
O       0.5222367587     2.0566376712     1.6838212406
O       1.6728490104     0.6978643801     2.9229320883
N       -0.4127437823     -0.6646265890     3.8222265486
O       0.0307748228     -1.6985019479     3.5067294013
O       -0.5624585588     0.5573232530     2.7334286870
$end
--------------------------------------------------------------

             Standard Nuclear Orientation (Angstroms)
    I     Atom           X                Y                Z
 ----------------------------------------------------------------
    1      N       0.6943328793     1.1462923424     2.4311619241
    2      O       0.5222367587     2.0566376712     1.6838212406
    3      O       1.6728490104     0.6978643801     2.9229320883
    4      N      -0.4127437823    -0.6646265890     3.8222265486
    5      O       0.0307748228    -1.6985019479     3.5067294013
    6      O      -0.5624585588     0.5573232530     2.7334286870
 ----------------------------------------------------------------

    8    -409.9255096626      6.23E-05 Convergence criterion met
   10    -410.0807080448      6.27E-06 Convergence criterion met
 Total energy in the final basis set = -410.08070804

                    Orbital Energies (a.u.)
 --------------------------------------------------------------

 Alpha MOs
 -- Occupied --
-19.4119 -19.4010 -19.3511 -19.3487 -14.7739 -14.6202  -1.4456  -1.3701
 -1.2607  -1.2077  -0.8751  -0.7768  -0.7200  -0.7188  -0.6867  -0.6576
 -0.6379  -0.6267  -0.5039  -0.4968  -0.4656  -0.4618  -0.4384  -0.3405

 Beta MOs
 -- Occupied --
-19.3990 -19.3827 -19.3492 -19.3486 -14.7737 -14.6023  -1.4409  -1.3318
 -1.2580  -1.1748  -0.8308  -0.7456  -0.7167  -0.7039  -0.6739  -0.6065
 -0.5816  -0.5577  -0.4799  -0.4719  -0.4631  -0.4472

                    Cartesian Multipole Moments
 -----------------------------------------------------------------
    Charge (ESU x 10^10)
                -0.0000
    Dipole Moment (Debye)
         X      -0.4765      Y      -0.5425      Z       0.4583
       Tot       0.8553
    Quadrupole Moments (Debye-Ang)
        XX     -33.9074     XY       0.0139     YY     -33.6087
        XZ      -1.8770     YZ       0.0012     ZZ     -28.7184

 Total job time:  16.00s(wall), 85.30s(cpu)
        *  Thank you very much for using Q-Chem.  Have a nice day.  *
