 Q-Chem 5.3 (devel), Q-Chem, Inc., Pleasanton, CA (2020)
 Q-Chem 5.3.0 for Intel X86 EM64T Linux

User input:
--------------------------------------------------------------
$rem
   JOBTYPE  sp
   EXCHANGE   omegaB97X-D
   BASIS   6-311+G(2df,2pd)
   UNRESTRICTED   True
   max_scf_cycles   250
   geom_opt_max_cycles   1500
   basis2 6-31G*
   scf_algorithm rca_diis
   SYM_IGNORE  TRUE
   print_input   true
   geom_opt_dmax   80
   pop_mulliken false
   XC_GRID 000075000302
$end

$molecule
0 3
N       0.6664089141     1.0733623399     2.4050972865
O       0.5928516563     2.1809255916     1.9752638737
O       1.5863224487     0.3495794237     2.5792142866
N       -0.6077978585     -0.8722858226     3.4204579264
O       0.3449749802     -1.2637872682     3.9719069237
O       -0.6377690106     0.6271948456     2.7483595929
$end
--------------------------------------------------------------

             Standard Nuclear Orientation (Angstroms)
    I     Atom           X                Y                Z
 ----------------------------------------------------------------
    1      N       0.6664089141     1.0733623399     2.4050972865
    2      O       0.5928516563     2.1809255916     1.9752638737
    3      O       1.5863224487     0.3495794237     2.5792142866
    4      N      -0.6077978585    -0.8722858226     3.4204579264
    5      O       0.3449749802    -1.2637872682     3.9719069237
    6      O      -0.6377690106     0.6271948456     2.7483595929
 ----------------------------------------------------------------

    8    -409.9185316239      8.20E-05 Convergence criterion met
   10    -410.0733257598      6.93E-06 Convergence criterion met
 Total energy in the final basis set = -410.07332576

                    Orbital Energies (a.u.)
 --------------------------------------------------------------

 Alpha MOs
 -- Occupied --
-19.4109 -19.4022 -19.3514 -19.3487 -14.7754 -14.6159  -1.4472  -1.3711
 -1.2622  -1.2069  -0.8754  -0.7789  -0.7211  -0.7141  -0.6863  -0.6607
 -0.6481  -0.6153  -0.5056  -0.5026  -0.4671  -0.4555  -0.4412  -0.3330

 Beta MOs
 -- Occupied --
-19.3983 -19.3833 -19.3488 -19.3487 -14.7756 -14.5979  -1.4425  -1.3321
 -1.2588  -1.1752  -0.8302  -0.7509  -0.7180  -0.6984  -0.6732  -0.6130
 -0.5745  -0.5582  -0.4800  -0.4747  -0.4627  -0.4444

                    Cartesian Multipole Moments
 -----------------------------------------------------------------
    Charge (ESU x 10^10)
                -0.0000
    Dipole Moment (Debye)
         X      -0.4811      Y      -0.6387      Z       0.3196
       Tot       0.8611
    Quadrupole Moments (Debye-Ang)
        XX     -33.8095     XY       0.5995     YY     -33.6832
        XZ      -1.3366     YZ      -0.5317     ZZ     -29.4184

 Total job time:  16.25s(wall), 86.59s(cpu)
        *  Thank you very much for using Q-Chem.  Have a nice day.  *
