 Q-Chem 5.3 (devel), Q-Chem, Inc., Pleasanton, CA (2020)
 Q-Chem 5.3.0 for Intel X86 EM64T Linux

User input:
--------------------------------------------------------------
$rem
   JOBTYPE  sp
   EXCHANGE   omegaB97X-D
   BASIS   6-311+G(2df,2pd)
   UNRESTRICTED   True
   max_scf_cycles   250
   geom_opt_max_cycles   1500
   basis2 6-31G*
   scf_algorithm rca_diis
   SYM_IGNORE  TRUE
   print_input   true
   geom_opt_dmax   80
   pop_mulliken false
   XC_GRID 000075000302
$end

$molecule
0 3
N       0.6736236369     1.0820087474     2.3857712370
O       0.5831964182     2.2139951065     2.0289889640
O       1.5983359853     0.3483651687     2.4699942903
N       -0.5566299892     -0.9218092998     3.3403895639
O       0.2603708102     -1.2438253110     4.1110781152
O       -0.6139057314     0.6162546981     2.7640777196
$end
--------------------------------------------------------------

             Standard Nuclear Orientation (Angstroms)
    I     Atom           X                Y                Z
 ----------------------------------------------------------------
    1      N       0.6736236369     1.0820087474     2.3857712370
    2      O       0.5831964182     2.2139951065     2.0289889640
    3      O       1.5983359853     0.3483651687     2.4699942903
    4      N      -0.5566299892    -0.9218092998     3.3403895639
    5      O       0.2603708102    -1.2438253110     4.1110781152
    6      O      -0.6139057314     0.6162546981     2.7640777196
 ----------------------------------------------------------------

    8    -409.9223886471      7.70E-05 Convergence criterion met
   10    -410.0773838905      7.33E-06 Convergence criterion met
 Total energy in the final basis set = -410.07738389

                    Orbital Energies (a.u.)
 --------------------------------------------------------------

 Alpha MOs
 -- Occupied --
-19.4119 -19.4013 -19.3518 -19.3488 -14.7747 -14.6184  -1.4467  -1.3706
 -1.2617  -1.2075  -0.8755  -0.7772  -0.7208  -0.7169  -0.6869  -0.6596
 -0.6434  -0.6194  -0.5051  -0.5004  -0.4667  -0.4595  -0.4399  -0.3366

 Beta MOs
 -- Occupied --
-19.3992 -19.3829 -19.3492 -19.3491 -14.7747 -14.6006  -1.4419  -1.3321
 -1.2586  -1.1753  -0.8309  -0.7479  -0.7176  -0.7015  -0.6739  -0.6100
 -0.5781  -0.5577  -0.4796  -0.4737  -0.4631  -0.4465

                    Cartesian Multipole Moments
 -----------------------------------------------------------------
    Charge (ESU x 10^10)
                -0.0000
    Dipole Moment (Debye)
         X      -0.5138      Y      -0.6345      Z       0.2818
       Tot       0.8637
    Quadrupole Moments (Debye-Ang)
        XX     -33.7788     XY       0.6137     YY     -33.7028
        XZ      -1.2607     YZ      -0.5751     ZZ     -29.6861

 Total job time:  16.17s(wall), 86.11s(cpu)
        *  Thank you very much for using Q-Chem.  Have a nice day.  *
