 Q-Chem 5.3 (devel), Q-Chem, Inc., Pleasanton, CA (2020)
 Q-Chem 5.3.0 for Intel X86 EM64T Linux

User input:
--------------------------------------------------------------
$rem
   JOBTYPE  sp
   EXCHANGE   omegaB97X-D
   BASIS   6-311+G(2df,2pd)
   UNRESTRICTED   True
   max_scf_cycles   250
   geom_opt_max_cycles   1500
   basis2 6-31G*
   scf_algorithm rca_diis
   SYM_IGNORE  TRUE
   print_input   true
   geom_opt_dmax   80
   pop_mulliken false
   XC_GRID 000075000302
$end

$molecule
0 3
N       0.7355282936     1.2535793306     2.4259221408
O       0.3811366691     2.1330814708     1.7063762066
O       1.7551556118     1.0545965490     2.9926542955
N       0.0612395053     -0.8832593645     3.6172919078
O       -0.6586012366     -1.7884190706     3.7836068907
O       -0.3294677131     0.3254101947     2.5744484486
$end
--------------------------------------------------------------

             Standard Nuclear Orientation (Angstroms)
    I     Atom           X                Y                Z
 ----------------------------------------------------------------
    1      N       0.7355282936     1.2535793306     2.4259221408
    2      O       0.3811366691     2.1330814708     1.7063762066
    3      O       1.7551556118     1.0545965490     2.9926542955
    4      N       0.0612395053    -0.8832593645     3.6172919078
    5      O      -0.6586012366    -1.7884190706     3.7836068907
    6      O      -0.3294677131     0.3254101947     2.5744484486
 ----------------------------------------------------------------

    8    -409.9242383048      9.93E-05 Convergence criterion met
    9    -410.0796206305      9.23E-06 Convergence criterion met
 Total energy in the final basis set = -410.07962063

                    Orbital Energies (a.u.)
 --------------------------------------------------------------

 Alpha MOs
 -- Occupied --
-19.4135 -19.4007 -19.3478 -19.3470 -14.7756 -14.6200  -1.4440  -1.3696
 -1.2589  -1.2096  -0.8731  -0.7794  -0.7196  -0.7185  -0.6841  -0.6534
 -0.6480  -0.6228  -0.5070  -0.4956  -0.4641  -0.4602  -0.4392  -0.3334

 Beta MOs
 -- Occupied --
-19.3993 -19.3832 -19.3475 -19.3459 -14.7761 -14.6013  -1.4401  -1.3316
 -1.2570  -1.1751  -0.8314  -0.7444  -0.7158  -0.7057  -0.6730  -0.6037
 -0.5739  -0.5712  -0.4797  -0.4711  -0.4615  -0.4463

                    Cartesian Multipole Moments
 -----------------------------------------------------------------
    Charge (ESU x 10^10)
                -0.0000
    Dipole Moment (Debye)
         X      -0.2644      Y      -0.6948      Z       0.3613
       Tot       0.8266
    Quadrupole Moments (Debye-Ang)
        XX     -33.6495     XY      -1.1142     YY     -33.9984
        XZ      -1.3105     YZ      -0.3948     ZZ     -29.7135

 Total job time:  14.49s(wall), 77.00s(cpu)
        *  Thank you very much for using Q-Chem.  Have a nice day.  *
