 Q-Chem 5.3 (devel), Q-Chem, Inc., Pleasanton, CA (2020)
 Q-Chem 5.3.0 for Intel X86 EM64T Linux

User input:
--------------------------------------------------------------
$rem
   JOBTYPE  sp
   EXCHANGE   omegaB97X-D
   BASIS   6-311+G(2df,2pd)
   UNRESTRICTED   True
   max_scf_cycles   250
   geom_opt_max_cycles   1500
   basis2 6-31G*
   scf_algorithm rca_diis
   SYM_IGNORE  TRUE
   print_input   true
   geom_opt_dmax   80
   pop_mulliken false
   XC_GRID 000075000302
$end

$molecule
0 3
N       0.9119695037     1.1011018008     2.4775864276
O       0.0450401028     1.5704315679     3.1446896978
O       1.8104851886     1.5922582661     1.8844133997
N       -0.2216123724     -0.8346762778     3.6641201445
O       -1.3592779294     -1.0232813485     3.4762620373
O       0.7583866368     -0.3108448987     2.4532281830
$end
--------------------------------------------------------------

             Standard Nuclear Orientation (Angstroms)
    I     Atom           X                Y                Z
 ----------------------------------------------------------------
    1      N       0.9119695037     1.1011018008     2.4775864276
    2      O       0.0450401028     1.5704315679     3.1446896978
    3      O       1.8104851886     1.5922582661     1.8844133997
    4      N      -0.2216123724    -0.8346762778     3.6641201445
    5      O      -1.3592779294    -1.0232813485     3.4762620373
    6      O       0.7583866368    -0.3108448987     2.4532281830
 ----------------------------------------------------------------

    8    -409.9160623185      6.25E-05 Convergence criterion met
   10    -410.0715218366      6.49E-06 Convergence criterion met
 Total energy in the final basis set = -410.07152184

                    Orbital Energies (a.u.)
 --------------------------------------------------------------

 Alpha MOs
 -- Occupied --
-19.4089 -19.4025 -19.3556 -19.3337 -14.7704 -14.6222  -1.4426  -1.3707
 -1.2593  -1.2034  -0.8767  -0.7750  -0.7184  -0.7168  -0.6812  -0.6597
 -0.6348  -0.6315  -0.5042  -0.4898  -0.4619  -0.4581  -0.4381  -0.3403

 Beta MOs
 -- Occupied --
-19.3953 -19.3845 -19.3541 -19.3338 -14.7702 -14.6042  -1.4380  -1.3326
 -1.2558  -1.1702  -0.8331  -0.7420  -0.7132  -0.7043  -0.6704  -0.6068
 -0.5835  -0.5593  -0.4814  -0.4680  -0.4592  -0.4356

                    Cartesian Multipole Moments
 -----------------------------------------------------------------
    Charge (ESU x 10^10)
                -0.0000
    Dipole Moment (Debye)
         X      -0.1496      Y      -0.8540      Z       0.2133
       Tot       0.8928
    Quadrupole Moments (Debye-Ang)
        XX     -33.4919     XY      -0.4052     YY     -34.1402
        XZ       1.1524     YZ      -2.9435     ZZ     -29.7776

 Total job time:  15.99s(wall), 85.49s(cpu)
        *  Thank you very much for using Q-Chem.  Have a nice day.  *
