 Q-Chem 5.3 (devel), Q-Chem, Inc., Pleasanton, CA (2020)
 Q-Chem 5.3.0 for Intel X86 EM64T Linux

User input:
--------------------------------------------------------------
$rem
   JOBTYPE  sp
   EXCHANGE   omegaB97X-D
   BASIS   6-311+G(2df,2pd)
   UNRESTRICTED   True
   max_scf_cycles   250
   geom_opt_max_cycles   1500
   basis2 6-31G*
   scf_algorithm rca_diis
   SYM_IGNORE  TRUE
   print_input   true
   geom_opt_dmax   80
   pop_mulliken false
   XC_GRID 000075000302
$end

$molecule
0 3
N       0.8929886349     1.1088314395     2.4654024869
O       -0.0363679169     1.6125494641     3.0126029446
O       1.9133196143     1.5535920204     2.0634919638
N       -0.1506550305     -0.8951825918     3.6207563559
O       -1.3139906492     -1.0037905790     3.6208211502
O       0.6396964776     -0.2810106434     2.3172249886
$end
--------------------------------------------------------------

             Standard Nuclear Orientation (Angstroms)
    I     Atom           X                Y                Z
 ----------------------------------------------------------------
    1      N       0.8929886349     1.1088314395     2.4654024869
    2      O      -0.0363679169     1.6125494641     3.0126029446
    3      O       1.9133196143     1.5535920204     2.0634919638
    4      N      -0.1506550305    -0.8951825918     3.6207563559
    5      O      -1.3139906492    -1.0037905790     3.6208211502
    6      O       0.6396964776    -0.2810106434     2.3172249886
 ----------------------------------------------------------------

    8    -409.9145298682      6.54E-05 Convergence criterion met
   11    -410.0700739754      8.82E-06 Convergence criterion met
 Total energy in the final basis set = -410.07007398

                    Orbital Energies (a.u.)
 --------------------------------------------------------------

 Alpha MOs
 -- Occupied --
-19.4057 -19.4050 -19.3548 -19.3345 -14.7691 -14.6234  -1.4417  -1.3723
 -1.2582  -1.2022  -0.8768  -0.7762  -0.7207  -0.7150  -0.6775  -0.6579
 -0.6376  -0.6311  -0.5096  -0.4858  -0.4624  -0.4587  -0.4344  -0.3427

 Beta MOs
 -- Occupied --
-19.3924 -19.3867 -19.3535 -19.3345 -14.7691 -14.6055  -1.4373  -1.3338
 -1.2550  -1.1691  -0.8325  -0.7450  -0.7113  -0.7025  -0.6704  -0.6038
 -0.5838  -0.5614  -0.4881  -0.4671  -0.4577  -0.4306

                    Cartesian Multipole Moments
 -----------------------------------------------------------------
    Charge (ESU x 10^10)
                -0.0000
    Dipole Moment (Debye)
         X      -0.1612      Y      -0.8823      Z       0.1937
       Tot       0.9175
    Quadrupole Moments (Debye-Ang)
        XX     -33.9674     XY      -0.3874     YY     -33.9650
        XZ       0.9776     YZ      -3.2968     ZZ     -29.4765

 Total job time:  16.91s(wall), 90.91s(cpu)
        *  Thank you very much for using Q-Chem.  Have a nice day.  *
