 Q-Chem 5.3 (devel), Q-Chem, Inc., Pleasanton, CA (2020)
 Q-Chem 5.3.0 for Intel X86 EM64T Linux

User input:
--------------------------------------------------------------
$rem
   JOBTYPE  sp
   EXCHANGE   omegaB97X-D
   BASIS   6-311+G(2df,2pd)
   UNRESTRICTED   True
   max_scf_cycles   250
   geom_opt_max_cycles   1500
   basis2 6-31G*
   scf_algorithm rca_diis
   SYM_IGNORE  TRUE
   print_input   true
   geom_opt_dmax   80
   pop_mulliken false
   XC_GRID 000075000302
$end

$molecule
0 3
N       0.6762224138     1.1067420344     2.4338459606
O       0.5608286689     2.0739550975     1.7497063815
O       1.6266456129     0.5498295936     2.8662388681
N       -0.5406488815     -0.6935027933     3.7447424903
O       0.2387401404     -1.5456889361     3.5673249280
O       -0.6167968244     0.6036541139     2.7384412615
$end
--------------------------------------------------------------

             Standard Nuclear Orientation (Angstroms)
    I     Atom           X                Y                Z
 ----------------------------------------------------------------
    1      N       0.6762224138     1.1067420344     2.4338459606
    2      O       0.5608286689     2.0739550975     1.7497063815
    3      O       1.6266456129     0.5498295936     2.8662388681
    4      N      -0.5406488815    -0.6935027933     3.7447424903
    5      O       0.2387401404    -1.5456889361     3.5673249280
    6      O      -0.6167968244     0.6036541139     2.7384412615
 ----------------------------------------------------------------

    8    -409.9216416591      7.64E-05 Convergence criterion met
   10    -410.0765815922      7.17E-06 Convergence criterion met
 Total energy in the final basis set = -410.07658159

                    Orbital Energies (a.u.)
 --------------------------------------------------------------

 Alpha MOs
 -- Occupied --
-19.4114 -19.4018 -19.3514 -19.3485 -14.7746 -14.6180  -1.4465  -1.3708
 -1.2615  -1.2072  -0.8755  -0.7775  -0.7203  -0.7165  -0.6866  -0.6598
 -0.6443  -0.6189  -0.5047  -0.5007  -0.4665  -0.4584  -0.4402  -0.3363

 Beta MOs
 -- Occupied --
-19.3988 -19.3831 -19.3489 -19.3487 -14.7747 -14.6002  -1.4418  -1.3321
 -1.2585  -1.1751  -0.8306  -0.7484  -0.7173  -0.7008  -0.6737  -0.6107
 -0.5774  -0.5575  -0.4803  -0.4735  -0.4629  -0.4455

                    Cartesian Multipole Moments
 -----------------------------------------------------------------
    Charge (ESU x 10^10)
                -0.0000
    Dipole Moment (Debye)
         X      -0.4961      Y      -0.5789      Z       0.4259
       Tot       0.8733
    Quadrupole Moments (Debye-Ang)
        XX     -33.8837     XY       0.3072     YY     -33.5443
        XZ      -1.8486     YZ      -0.1715     ZZ     -28.8680

 Total job time:  16.18s(wall), 86.29s(cpu)
        *  Thank you very much for using Q-Chem.  Have a nice day.  *
