 Q-Chem 5.3 (devel), Q-Chem, Inc., Pleasanton, CA (2020)
 Q-Chem 5.3.0 for Intel X86 EM64T Linux

User input:
--------------------------------------------------------------
$rem
   JOBTYPE  sp
   EXCHANGE   omegaB97X-D
   BASIS   6-311+G(2df,2pd)
   UNRESTRICTED   True
   max_scf_cycles   250
   geom_opt_max_cycles   1500
   basis2 6-31G*
   scf_algorithm rca_diis
   SYM_IGNORE  TRUE
   print_input   true
   geom_opt_dmax   80
   pop_mulliken false
   XC_GRID 000075000302
$end

$molecule
0 3
N       0.6633175461     1.0723129464     2.4196907986
O       0.5943696628     2.1461447849     1.9107751263
O       1.5838210608     0.3760331311     2.6810087062
N       -0.6284334803     -0.8167296107     3.5165063728
O       0.3804232831     -1.3146221300     3.8318736681
O       -0.6485069422     0.6318499882     2.7404452181
$end
--------------------------------------------------------------

             Standard Nuclear Orientation (Angstroms)
    I     Atom           X                Y                Z
 ----------------------------------------------------------------
    1      N       0.6633175461     1.0723129464     2.4196907986
    2      O       0.5943696628     2.1461447849     1.9107751263
    3      O       1.5838210608     0.3760331311     2.6810087062
    4      N      -0.6284334803    -0.8167296107     3.5165063728
    5      O       0.3804232831    -1.3146221300     3.8318736681
    6      O      -0.6485069422     0.6318499882     2.7404452181
 ----------------------------------------------------------------

    8    -409.9158457714      8.39E-05 Convergence criterion met
   10    -410.0705012632      5.19E-06 Convergence criterion met
 Total energy in the final basis set = -410.07050126

                    Orbital Energies (a.u.)
 --------------------------------------------------------------

 Alpha MOs
 -- Occupied --
-19.4097 -19.4029 -19.3510 -19.3494 -14.7761 -14.6136  -1.4478  -1.3715
 -1.2629  -1.2062  -0.8750  -0.7807  -0.7214  -0.7119  -0.6858  -0.6603
 -0.6522  -0.6130  -0.5057  -0.5039  -0.4672  -0.4530  -0.4413  -0.3308

 Beta MOs
 -- Occupied --
-19.3972 -19.3837 -19.3492 -19.3486 -14.7765 -14.5955  -1.4431  -1.3320
 -1.2593  -1.1749  -0.8294  -0.7536  -0.7184  -0.6963  -0.6727  -0.6149
 -0.5716  -0.5591  -0.4803  -0.4756  -0.4626  -0.4432

                    Cartesian Multipole Moments
 -----------------------------------------------------------------
    Charge (ESU x 10^10)
                 0.0000
    Dipole Moment (Debye)
         X      -0.4345      Y      -0.6314      Z       0.3518
       Tot       0.8433
    Quadrupole Moments (Debye-Ang)
        XX     -33.8391     XY       0.5488     YY     -33.6606
        XZ      -1.3443     YZ      -0.4251     ZZ     -29.2215

 Total job time:  15.76s(wall), 83.47s(cpu)
        *  Thank you very much for using Q-Chem.  Have a nice day.  *
