 Q-Chem 5.3 (devel), Q-Chem, Inc., Pleasanton, CA (2020)
 Q-Chem 5.3.0 for Intel X86 EM64T Linux

User input:
--------------------------------------------------------------
$rem
   JOBTYPE  sp
   EXCHANGE   omegaB97X-D
   BASIS   6-311+G(2df,2pd)
   UNRESTRICTED   True
   max_scf_cycles   250
   geom_opt_max_cycles   1500
   basis2 6-31G*
   scf_algorithm rca_diis
   SYM_IGNORE  TRUE
   print_input   true
   geom_opt_dmax   80
   pop_mulliken false
   XC_GRID 000075000302
$end

$molecule
0 3
N       0.9246557702     1.0993265018     2.4964050898
O       0.1547621085     1.5844231398     3.2637438618
O       1.6802805116     1.5779400278     1.7215633683
N       -0.2977246107     -0.7808209944     3.6842344117
O       -1.3712550176     -1.0709119453     3.3257303442
O       0.8542723680     -0.3149676198     2.6086228142
$end
--------------------------------------------------------------

             Standard Nuclear Orientation (Angstroms)
    I     Atom           X                Y                Z
 ----------------------------------------------------------------
    1      N       0.9246557702     1.0993265018     2.4964050898
    2      O       0.1547621085     1.5844231398     3.2637438618
    3      O       1.6802805116     1.5779400278     1.7215633683
    4      N      -0.2977246107    -0.7808209944     3.6842344117
    5      O      -1.3712550176    -1.0709119453     3.3257303442
    6      O       0.8542723680    -0.3149676198     2.6086228142
 ----------------------------------------------------------------

    7    -409.9160334184      9.94E-05 Convergence criterion met
   10    -410.0715799364      4.09E-06 Convergence criterion met
 Total energy in the final basis set = -410.07157994

                    Orbital Energies (a.u.)
 --------------------------------------------------------------

 Alpha MOs
 -- Occupied --
-19.4105 -19.4008 -19.3562 -19.3333 -14.7713 -14.6220  -1.4432  -1.3700
 -1.2599  -1.2042  -0.8768  -0.7743  -0.7187  -0.7170  -0.6829  -0.6596
 -0.6336  -0.6326  -0.4983  -0.4955  -0.4613  -0.4577  -0.4402  -0.3388

 Beta MOs
 -- Occupied --
-19.3966 -19.3832 -19.3548 -19.3334 -14.7710 -14.6036  -1.4384  -1.3322
 -1.2563  -1.1707  -0.8336  -0.7402  -0.7147  -0.7053  -0.6704  -0.6071
 -0.5841  -0.5591  -0.4776  -0.4690  -0.4603  -0.4376

                    Cartesian Multipole Moments
 -----------------------------------------------------------------
    Charge (ESU x 10^10)
                -0.0000
    Dipole Moment (Debye)
         X      -0.1376      Y      -0.8166      Z       0.2394
       Tot       0.8620
    Quadrupole Moments (Debye-Ang)
        XX     -32.9038     XY      -0.3550     YY     -34.2623
        XZ       1.1080     YZ      -2.6476     ZZ     -30.1811

 Total job time:  15.52s(wall), 82.80s(cpu)
        *  Thank you very much for using Q-Chem.  Have a nice day.  *
