 Q-Chem 5.3 (devel), Q-Chem, Inc., Pleasanton, CA (2020)
 Q-Chem 5.3.0 for Intel X86 EM64T Linux

User input:
--------------------------------------------------------------
$rem
   JOBTYPE  sp
   EXCHANGE   omegaB97X-D
   BASIS   6-311+G(2df,2pd)
   UNRESTRICTED   True
   max_scf_cycles   250
   geom_opt_max_cycles   1500
   basis2 6-31G*
   scf_algorithm rca_diis
   SYM_IGNORE  TRUE
   print_input   true
   geom_opt_dmax   80
   pop_mulliken false
   XC_GRID 000075000302
$end

$molecule
0 3
N       0.7397669830     1.1835228970     2.4596347521
O       0.1100570916     2.1545644264     2.1814125561
O       1.8115882268     1.0443698816     2.9415631805
N       0.0655182812     -1.1178055782     3.2899255672
O       -0.7632720275     -1.2015725676     4.1092150012
O       -0.0186674250     0.0319100507     2.1185488329
$end
--------------------------------------------------------------

             Standard Nuclear Orientation (Angstroms)
    I     Atom           X                Y                Z
 ----------------------------------------------------------------
    1      N       0.7397669830     1.1835228970     2.4596347521
    2      O       0.1100570916     2.1545644264     2.1814125561
    3      O       1.8115882268     1.0443698816     2.9415631805
    4      N       0.0655182812    -1.1178055782     3.2899255672
    5      O      -0.7632720275    -1.2015725676     4.1092150012
    6      O      -0.0186674250     0.0319100507     2.1185488329
 ----------------------------------------------------------------

    8    -409.9222933829      7.54E-05 Convergence criterion met
   11    -410.0777539941      6.46E-06 Convergence criterion met
 Total energy in the final basis set = -410.07775399

                    Orbital Energies (a.u.)
 --------------------------------------------------------------

 Alpha MOs
 -- Occupied --
-19.4112 -19.3970 -19.3527 -19.3501 -14.7740 -14.6207  -1.4460  -1.3677
 -1.2612  -1.2090  -0.8744  -0.7779  -0.7250  -0.7172  -0.6831  -0.6523
 -0.6345  -0.6310  -0.5167  -0.4892  -0.4671  -0.4594  -0.4387  -0.3398

 Beta MOs
 -- Occupied --
-19.3972 -19.3800 -19.3506 -19.3502 -14.7739 -14.6025  -1.4414  -1.3307
 -1.2586  -1.1740  -0.8317  -0.7475  -0.7165  -0.7036  -0.6743  -0.5989
 -0.5852  -0.5601  -0.4871  -0.4701  -0.4649  -0.4397

                    Cartesian Multipole Moments
 -----------------------------------------------------------------
    Charge (ESU x 10^10)
                 0.0000
    Dipole Moment (Debye)
         X      -0.1161      Y      -0.7007      Z       0.0073
       Tot       0.7103
    Quadrupole Moments (Debye-Ang)
        XX     -33.7264     XY      -0.4723     YY     -33.6194
        XZ      -1.0556     YZ      -1.6882     ZZ     -31.4979

 Total job time:  16.66s(wall), 89.55s(cpu)
        *  Thank you very much for using Q-Chem.  Have a nice day.  *
