 Q-Chem 5.3 (devel), Q-Chem, Inc., Pleasanton, CA (2020)
 Q-Chem 5.3.0 for Intel X86 EM64T Linux

User input:
--------------------------------------------------------------
$rem
   JOBTYPE  sp
   EXCHANGE   omegaB97X-D
   BASIS   6-311+G(2df,2pd)
   UNRESTRICTED   True
   max_scf_cycles   250
   geom_opt_max_cycles   1500
   basis2 6-31G*
   scf_algorithm rca_diis
   SYM_IGNORE  TRUE
   print_input   true
   geom_opt_dmax   80
   pop_mulliken false
   XC_GRID 000075000302
$end

$molecule
0 3
N       0.8812547654     1.1145907846     2.4614309153
O       -0.0658016786     1.6528661288     2.9412303894
O       1.9516142568     1.5162445676     2.1557772743
N       -0.1180212321     -0.9253446920     3.5928979422
O       -1.2797759605     -1.0053087135     3.6881721107
O       0.5757209790     -0.2580589656     2.2607912580
$end
--------------------------------------------------------------

             Standard Nuclear Orientation (Angstroms)
    I     Atom           X                Y                Z
 ----------------------------------------------------------------
    1      N       0.8812547654     1.1145907846     2.4614309153
    2      O      -0.0658016786     1.6528661288     2.9412303894
    3      O       1.9516142568     1.5162445676     2.1557772743
    4      N      -0.1180212321    -0.9253446920     3.5928979422
    5      O      -1.2797759605    -1.0053087135     3.6881721107
    6      O       0.5757209790    -0.2580589656     2.2607912580
 ----------------------------------------------------------------

    8    -409.9132087783      6.78E-05 Convergence criterion met
   13    -410.0688676808      3.65E-06 Convergence criterion met
 Total energy in the final basis set = -410.06886768

                    Orbital Energies (a.u.)
 --------------------------------------------------------------

 Alpha MOs
 -- Occupied --
-19.4056 -19.4032 -19.3543 -19.3357 -14.7684 -14.6251  -1.4414  -1.3731
 -1.2578  -1.2015  -0.8770  -0.7768  -0.7225  -0.7139  -0.6759  -0.6567
 -0.6387  -0.6312  -0.5112  -0.4846  -0.4629  -0.4590  -0.4323  -0.3439

 Beta MOs
 -- Occupied --
-19.3901 -19.3873 -19.3532 -19.3355 -14.7685 -14.6071  -1.4372  -1.3345
 -1.2548  -1.1685  -0.8321  -0.7463  -0.7105  -0.7016  -0.6707  -0.6022
 -0.5839  -0.5626  -0.4918  -0.4667  -0.4573  -0.4275

                    Cartesian Multipole Moments
 -----------------------------------------------------------------
    Charge (ESU x 10^10)
                -0.0000
    Dipole Moment (Debye)
         X      -0.1636      Y      -0.8923      Z       0.1932
       Tot       0.9275
    Quadrupole Moments (Debye-Ang)
        XX     -34.1757     XY      -0.3595     YY     -33.8793
        XZ       0.8403     YZ      -3.4468     ZZ     -29.3326

 Total job time:  18.64s(wall), 101.34s(cpu)
        *  Thank you very much for using Q-Chem.  Have a nice day.  *
