 Q-Chem 5.3 (devel), Q-Chem, Inc., Pleasanton, CA (2020)
 Q-Chem 5.3.0 for Intel X86 EM64T Linux

User input:
--------------------------------------------------------------
$rem
   JOBTYPE  sp
   EXCHANGE   omegaB97X-D
   BASIS   6-311+G(2df,2pd)
   UNRESTRICTED   True
   max_scf_cycles   250
   geom_opt_max_cycles   1500
   basis2 6-31G*
   scf_algorithm rca_diis
   SYM_IGNORE  TRUE
   print_input   true
   geom_opt_dmax   80
   pop_mulliken false
   XC_GRID 000075000302
$end

$molecule
0 3
N       0.9032581415     1.1042650015     2.4707202777
O       0.0007445436     1.5845960770     3.0803226507
O       1.8658569499     1.5794146607     1.9726683868
N       -0.1852686042     -0.8646237474     3.6448980832
O       -1.3407189713     -1.0097138342     3.5498782085
O       0.7011190706     -0.2989490476     2.3818122832
$end
--------------------------------------------------------------

             Standard Nuclear Orientation (Angstroms)
    I     Atom           X                Y                Z
 ----------------------------------------------------------------
    1      N       0.9032581415     1.1042650015     2.4707202777
    2      O       0.0007445436     1.5845960770     3.0803226507
    3      O       1.8658569499     1.5794146607     1.9726683868
    4      N      -0.1852686042    -0.8646237474     3.6448980832
    5      O      -1.3407189713    -1.0097138342     3.5498782085
    6      O       0.7011190706    -0.2989490476     2.3818122832
 ----------------------------------------------------------------

    8    -409.9155288494      6.42E-05 Convergence criterion met
   10    -410.0710027618      9.66E-06 Convergence criterion met
 Total energy in the final basis set = -410.07100276

                    Orbital Energies (a.u.)
 --------------------------------------------------------------

 Alpha MOs
 -- Occupied --
-19.4074 -19.4036 -19.3553 -19.3342 -14.7698 -14.6226  -1.4422  -1.3714
 -1.2589  -1.2028  -0.8766  -0.7756  -0.7192  -0.7162  -0.6795  -0.6589
 -0.6361  -0.6311  -0.5072  -0.4875  -0.4622  -0.4583  -0.4365  -0.3415

 Beta MOs
 -- Occupied --
-19.3939 -19.3855 -19.3539 -19.3343 -14.7697 -14.6047  -1.4377  -1.3331
 -1.2554  -1.1696  -0.8329  -0.7435  -0.7123  -0.7034  -0.6704  -0.6054
 -0.5836  -0.5601  -0.4845  -0.4675  -0.4585  -0.4335

                    Cartesian Multipole Moments
 -----------------------------------------------------------------
    Charge (ESU x 10^10)
                -0.0000
    Dipole Moment (Debye)
         X      -0.1563      Y      -0.8707      Z       0.1989
       Tot       0.9067
    Quadrupole Moments (Debye-Ang)
        XX     -33.7394     XY      -0.4061     YY     -34.0571
        XZ       1.0844     YZ      -3.1247     ZZ     -29.6365

 Total job time:  15.97s(wall), 85.43s(cpu)
        *  Thank you very much for using Q-Chem.  Have a nice day.  *
