 Q-Chem 5.3 (devel), Q-Chem, Inc., Pleasanton, CA (2020)
 Q-Chem 5.3.0 for Intel X86 EM64T Linux

User input:
--------------------------------------------------------------
$rem
   JOBTYPE  sp
   EXCHANGE   omegaB97X-D
   BASIS   6-311+G(2df,2pd)
   UNRESTRICTED   True
   max_scf_cycles   250
   geom_opt_max_cycles   1500
   basis2 6-31G*
   scf_algorithm rca_diis
   SYM_IGNORE  TRUE
   print_input   true
   geom_opt_dmax   80
   pop_mulliken false
   XC_GRID 000075000302
$end

$molecule
0 3
N       0.7241294048     1.2503990829     2.4426447871
O       0.3556440030     2.1703148885     1.7832229125
O       1.7196987558     1.0608385049     3.0536503559
N       0.1225698289     -1.0245912255     3.3927248227
O       -0.6923310504     -1.6123789110     3.9890365319
O       -0.2847198120     0.2504067702     2.4390204799
$end
--------------------------------------------------------------

             Standard Nuclear Orientation (Angstroms)
    I     Atom           X                Y                Z
 ----------------------------------------------------------------
    1      N       0.7241294048     1.2503990829     2.4426447871
    2      O       0.3556440030     2.1703148885     1.7832229125
    3      O       1.7196987558     1.0608385049     3.0536503559
    4      N       0.1225698289    -1.0245912255     3.3927248227
    5      O      -0.6923310504    -1.6123789110     3.9890365319
    6      O      -0.2847198120     0.2504067702     2.4390204799
 ----------------------------------------------------------------

    8    -409.9249229231      9.37E-05 Convergence criterion met
    9    -410.0801843700      9.57E-06 Convergence criterion met
 Total energy in the final basis set = -410.08018437

                    Orbital Energies (a.u.)
 --------------------------------------------------------------

 Alpha MOs
 -- Occupied --
-19.4133 -19.4002 -19.3481 -19.3469 -14.7748 -14.6200  -1.4440  -1.3692
 -1.2589  -1.2092  -0.8733  -0.7788  -0.7195  -0.7184  -0.6844  -0.6539
 -0.6449  -0.6247  -0.5042  -0.4966  -0.4639  -0.4603  -0.4389  -0.3353

 Beta MOs
 -- Occupied --
-19.3993 -19.3825 -19.3474 -19.3462 -14.7750 -14.6015  -1.4398  -1.3312
 -1.2568  -1.1749  -0.8310  -0.7442  -0.7157  -0.7052  -0.6729  -0.6034
 -0.5796  -0.5649  -0.4793  -0.4710  -0.4617  -0.4464

                    Cartesian Multipole Moments
 -----------------------------------------------------------------
    Charge (ESU x 10^10)
                -0.0000
    Dipole Moment (Debye)
         X      -0.2203      Y      -0.7633      Z       0.2406
       Tot       0.8301
    Quadrupole Moments (Debye-Ang)
        XX     -33.4174     XY      -1.1997     YY     -33.8595
        XZ      -1.3946     YZ      -0.6696     ZZ     -30.7146

 Total job time:  14.55s(wall), 77.25s(cpu)
        *  Thank you very much for using Q-Chem.  Have a nice day.  *
