 Q-Chem 5.3 (devel), Q-Chem, Inc., Pleasanton, CA (2020)
 Q-Chem 5.3.0 for Intel X86 EM64T Linux

User input:
--------------------------------------------------------------
$rem
   JOBTYPE  sp
   EXCHANGE   omegaB97X-D
   BASIS   6-311+G(2df,2pd)
   UNRESTRICTED   True
   max_scf_cycles   250
   geom_opt_max_cycles   1500
   basis2 6-31G*
   scf_algorithm rca_diis
   SYM_IGNORE  TRUE
   print_input   true
   geom_opt_dmax   80
   pop_mulliken false
   XC_GRID 000075000302
$end

$molecule
0 3
N       0.9195453705     1.1448316401     2.6753744148
O       1.1834951510     2.0245437773     3.4325407495
O       0.7314689080     1.1335729008     1.5070765779
N       -0.6909414400     -0.6653204546     3.4302177945
O       -1.0411968948     -1.4674557073     2.6562374242
O       0.8426200354     -0.0751830464     3.3988529292
$end
--------------------------------------------------------------

             Standard Nuclear Orientation (Angstroms)
    I     Atom           X                Y                Z
 ----------------------------------------------------------------
    1      N       0.9195453705     1.1448316401     2.6753744148
    2      O       1.1834951510     2.0245437773     3.4325407495
    3      O       0.7314689080     1.1335729008     1.5070765779
    4      N      -0.6909414400    -0.6653204546     3.4302177945
    5      O      -1.0411968948    -1.4674557073     2.6562374242
    6      O       0.8426200354    -0.0751830464     3.3988529292
 ----------------------------------------------------------------

    8    -409.9130239595      6.87E-05 Convergence criterion met
   14    -410.0688782284      4.90E-06 Convergence criterion met
 Total energy in the final basis set = -410.06887823

                    Orbital Energies (a.u.)
 --------------------------------------------------------------

 Alpha MOs
 -- Occupied --
-19.4073 -19.4002 -19.3487 -19.3443 -14.7679 -14.6269  -1.4412  -1.3751
 -1.2564  -1.2024  -0.8769  -0.7781  -0.7261  -0.7123  -0.6754  -0.6561
 -0.6398  -0.6308  -0.5159  -0.4829  -0.4650  -0.4583  -0.4302  -0.3458

 Beta MOs
 -- Occupied --
-19.3888 -19.3875 -19.3489 -19.3426 -14.7681 -14.6089  -1.4372  -1.3362
 -1.2543  -1.1690  -0.8308  -0.7493  -0.7102  -0.7012  -0.6718  -0.5975
 -0.5850  -0.5652  -0.4993  -0.4666  -0.4585  -0.4235

                    Cartesian Multipole Moments
 -----------------------------------------------------------------
    Charge (ESU x 10^10)
                -0.0000
    Dipole Moment (Debye)
         X      -0.4750      Y      -0.7763      Z       0.2651
       Tot       0.9479
    Quadrupole Moments (Debye-Ang)
        XX     -30.5198     XY      -1.1339     YY     -34.3159
        XZ      -2.3479     YZ      -2.6705     ZZ     -32.5139

 Total job time:  19.55s(wall), 106.88s(cpu)
        *  Thank you very much for using Q-Chem.  Have a nice day.  *
