 Q-Chem 5.3 (devel), Q-Chem, Inc., Pleasanton, CA (2020)
 Q-Chem 5.3.0 for Intel X86 EM64T Linux

User input:
--------------------------------------------------------------
$rem
   JOBTYPE  sp
   EXCHANGE   omegaB97X-D
   BASIS   6-311+G(2df,2pd)
   UNRESTRICTED   True
   max_scf_cycles   250
   geom_opt_max_cycles   1500
   basis2 6-31G*
   scf_algorithm rca_diis
   SYM_IGNORE  TRUE
   print_input   true
   geom_opt_dmax   80
   pop_mulliken false
   XC_GRID 000075000302
$end

$molecule
0 3
N       0.6981094180     1.2041669889     2.4714428390
O       0.3117987280     2.1946215525     1.9360667115
O       1.6506739069     0.9826160619     3.1377426453
N       0.0528304931     -1.1464407670     3.1773926867
O       -0.5479432331     -1.2929265042     4.1687343631
O       -0.2204781828     0.1529517777     2.2089206444
$end
--------------------------------------------------------------

             Standard Nuclear Orientation (Angstroms)
    I     Atom           X                Y                Z
 ----------------------------------------------------------------
    1      N       0.6981094180     1.2041669889     2.4714428390
    2      O       0.3117987280     2.1946215525     1.9360667115
    3      O       1.6506739069     0.9826160619     3.1377426453
    4      N       0.0528304931    -1.1464407670     3.1773926867
    5      O      -0.5479432331    -1.2929265042     4.1687343631
    6      O      -0.2204781828     0.1529517777     2.2089206444
 ----------------------------------------------------------------

    7    -409.9259637803      9.74E-05 Convergence criterion met
   10    -410.0812826451      6.11E-06 Convergence criterion met
 Total energy in the final basis set = -410.08128265

                    Orbital Energies (a.u.)
 --------------------------------------------------------------

 Alpha MOs
 -- Occupied --
-19.4125 -19.3991 -19.3509 -19.3486 -14.7739 -14.6206  -1.4453  -1.3690
 -1.2603  -1.2085  -0.8744  -0.7772  -0.7210  -0.7186  -0.6859  -0.6554
 -0.6339  -0.6323  -0.5032  -0.4968  -0.4650  -0.4620  -0.4382  -0.3403

 Beta MOs
 -- Occupied --
-19.3991 -19.3814 -19.3489 -19.3486 -14.7737 -14.6025  -1.4406  -1.3311
 -1.2578  -1.1747  -0.8308  -0.7448  -0.7168  -0.7046  -0.6737  -0.6037
 -0.5838  -0.5588  -0.4785  -0.4718  -0.4634  -0.4474

                    Cartesian Multipole Moments
 -----------------------------------------------------------------
    Charge (ESU x 10^10)
                -0.0000
    Dipole Moment (Debye)
         X      -0.2026      Y      -0.7815      Z       0.0657
       Tot       0.8100
    Quadrupole Moments (Debye-Ang)
        XX     -33.1561     XY      -0.8514     YY     -33.5548
        XZ      -1.6972     YZ      -1.1073     ZZ     -31.9597

 Total job time:  15.50s(wall), 82.55s(cpu)
        *  Thank you very much for using Q-Chem.  Have a nice day.  *
