 Q-Chem 5.3 (devel), Q-Chem, Inc., Pleasanton, CA (2020)
 Q-Chem 5.3.0 for Intel X86 EM64T Linux

User input:
--------------------------------------------------------------
$rem
   JOBTYPE  sp
   EXCHANGE   omegaB97X-D
   BASIS   6-311+G(2df,2pd)
   UNRESTRICTED   True
   max_scf_cycles   250
   geom_opt_max_cycles   1500
   basis2 6-31G*
   scf_algorithm rca_diis
   SYM_IGNORE  TRUE
   print_input   true
   geom_opt_dmax   80
   pop_mulliken false
   XC_GRID 000075000302
$end

$molecule
0 3
N       0.8980621018     1.1661844382     2.7281741178
O       1.5736480939     1.9686157557     3.2908030697
O       0.4623688472     1.1273812307     1.6285900831
N       -0.7965302850     -0.6498930739     3.2481029718
O       -0.8133397401     -1.6122574649     2.5857453025
O       0.6207821122     0.0949582241     3.6188843450
$end
--------------------------------------------------------------

             Standard Nuclear Orientation (Angstroms)
    I     Atom           X                Y                Z
 ----------------------------------------------------------------
    1      N       0.8980621018     1.1661844382     2.7281741178
    2      O       1.5736480939     1.9686157557     3.2908030697
    3      O       0.4623688472     1.1273812307     1.6285900831
    4      N      -0.7965302850    -0.6498930739     3.2481029718
    5      O      -0.8133397401    -1.6122574649     2.5857453025
    6      O       0.6207821122     0.0949582241     3.6188843450
 ----------------------------------------------------------------

    7    -409.9233057618      9.12E-05 Convergence criterion met
   10    -410.0787145901      8.55E-06 Convergence criterion met
 Total energy in the final basis set = -410.07871459

                    Orbital Energies (a.u.)
 --------------------------------------------------------------

 Alpha MOs
 -- Occupied --
-19.4089 -19.4032 -19.3493 -19.3479 -14.7719 -14.6211  -1.4437  -1.3713
 -1.2589  -1.2062  -0.8749  -0.7778  -0.7214  -0.7165  -0.6831  -0.6563
 -0.6362  -0.6311  -0.5111  -0.4878  -0.4657  -0.4586  -0.4379  -0.3421

 Beta MOs
 -- Occupied --
-19.3960 -19.3847 -19.3483 -19.3470 -14.7718 -14.6034  -1.4393  -1.3326
 -1.2565  -1.1731  -0.8303  -0.7467  -0.7141  -0.7033  -0.6730  -0.6027
 -0.5832  -0.5600  -0.4866  -0.4692  -0.4619  -0.4397

                    Cartesian Multipole Moments
 -----------------------------------------------------------------
    Charge (ESU x 10^10)
                -0.0000
    Dipole Moment (Debye)
         X      -0.5206      Y      -0.6669      Z       0.2529
       Tot       0.8830
    Quadrupole Moments (Debye-Ang)
        XX     -31.4115     XY      -1.7575     YY     -33.7617
        XZ      -2.6289     YZ      -1.9298     ZZ     -32.3853

 Total job time:  15.56s(wall), 83.11s(cpu)
        *  Thank you very much for using Q-Chem.  Have a nice day.  *
