 Q-Chem 5.3 (devel), Q-Chem, Inc., Pleasanton, CA (2020)
 Q-Chem 5.3.0 for Intel X86 EM64T Linux

User input:
--------------------------------------------------------------
$rem
   JOBTYPE  sp
   EXCHANGE   omegaB97X-D
   BASIS   6-311+G(2df,2pd)
   UNRESTRICTED   True
   max_scf_cycles   250
   geom_opt_max_cycles   1500
   basis2 6-31G*
   scf_algorithm rca_diis
   SYM_IGNORE  TRUE
   print_input   true
   geom_opt_dmax   80
   pop_mulliken false
   XC_GRID 000075000302
$end

$molecule
0 3
N       0.9338153333     1.1105038513     2.5525005159
O       0.4614035836     1.7409370660     3.4448260675
O       1.3594129842     1.4285149687     1.4950720695
N       -0.4501229504     -0.7118434988     3.6497114634
O       -1.3113595920     -1.2115657480     3.0384058266
O       0.9518417713     -0.2615575292     2.9197839472
$end
--------------------------------------------------------------

             Standard Nuclear Orientation (Angstroms)
    I     Atom           X                Y                Z
 ----------------------------------------------------------------
    1      N       0.9338153333     1.1105038513     2.5525005159
    2      O       0.4614035836     1.7409370660     3.4448260675
    3      O       1.3594129842     1.4285149687     1.4950720695
    4      N      -0.4501229504    -0.7118434988     3.6497114634
    5      O      -1.3113595920    -1.2115657480     3.0384058266
    6      O       0.9518417713    -0.2615575292     2.9197839472
 ----------------------------------------------------------------

    8    -409.9152470100      6.90E-05 Convergence criterion met
   11    -410.0707578887      8.52E-06 Convergence criterion met
 Total energy in the final basis set = -410.07075789

                    Orbital Energies (a.u.)
 --------------------------------------------------------------

 Alpha MOs
 -- Occupied --
-19.4102 -19.3992 -19.3578 -19.3362 -14.7712 -14.6227  -1.4438  -1.3695
 -1.2604  -1.2056  -0.8764  -0.7759  -0.7233  -0.7157  -0.6798  -0.6542
 -0.6370  -0.6318  -0.5128  -0.4892  -0.4629  -0.4582  -0.4376  -0.3406

 Beta MOs
 -- Occupied --
-19.3959 -19.3822 -19.3563 -19.3365 -14.7711 -14.6044  -1.4391  -1.3326
 -1.2568  -1.1710  -0.8341  -0.7447  -0.7143  -0.7039  -0.6711  -0.5997
 -0.5873  -0.5619  -0.4864  -0.4689  -0.4607  -0.4322

                    Cartesian Multipole Moments
 -----------------------------------------------------------------
    Charge (ESU x 10^10)
                -0.0000
    Dipole Moment (Debye)
         X      -0.1281      Y      -0.7371      Z       0.2118
       Tot       0.7775
    Quadrupole Moments (Debye-Ang)
        XX     -31.5196     XY      -0.3084     YY     -34.3472
        XZ       0.3453     YZ      -2.5026     ZZ     -31.6656

 Total job time:  16.65s(wall), 89.68s(cpu)
        *  Thank you very much for using Q-Chem.  Have a nice day.  *
