 Q-Chem 5.3 (devel), Q-Chem, Inc., Pleasanton, CA (2020)
 Q-Chem 5.3.0 for Intel X86 EM64T Linux

User input:
--------------------------------------------------------------
$rem
   JOBTYPE  sp
   EXCHANGE   omegaB97X-D
   BASIS   6-311+G(2df,2pd)
   UNRESTRICTED   True
   max_scf_cycles   250
   geom_opt_max_cycles   1500
   basis2 6-31G*
   scf_algorithm rca_diis
   SYM_IGNORE  TRUE
   print_input   true
   geom_opt_dmax   80
   pop_mulliken false
   XC_GRID 000075000302
$end

$molecule
0 3
N       0.8681961442     1.1212829811     2.4585771876
O       -0.0867968366     1.7033941664     2.8660066467
O       1.9795561336     1.4695016578     2.2487151433
N       -0.0874760864     -0.9543299227     3.5624922939
O       -1.2389815194     -1.0135229409     3.7513755517
O       0.5104932948     -0.2313368318     2.2131330668
$end
--------------------------------------------------------------

             Standard Nuclear Orientation (Angstroms)
    I     Atom           X                Y                Z
 ----------------------------------------------------------------
    1      N       0.8681961442     1.1212829811     2.4585771876
    2      O      -0.0867968366     1.7033941664     2.8660066467
    3      O       1.9795561336     1.4695016578     2.2487151433
    4      N      -0.0874760864    -0.9543299227     3.5624922939
    5      O      -1.2389815194    -1.0135229409     3.7513755517
    6      O       0.5104932948    -0.2313368318     2.2131330668
 ----------------------------------------------------------------

    8    -409.9118348908      7.25E-05 Convergence criterion met
   13    -410.0676140530      5.07E-06 Convergence criterion met
 Total energy in the final basis set = -410.06761405

                    Orbital Energies (a.u.)
 --------------------------------------------------------------

 Alpha MOs
 -- Occupied --
-19.4061 -19.4012 -19.3534 -19.3373 -14.7679 -14.6265  -1.4412  -1.3737
 -1.2573  -1.2012  -0.8772  -0.7772  -0.7242  -0.7130  -0.6748  -0.6558
 -0.6393  -0.6311  -0.5129  -0.4837  -0.4635  -0.4594  -0.4306  -0.3447

 Beta MOs
 -- Occupied --
-19.3882 -19.3878 -19.3526 -19.3368 -14.7681 -14.6084  -1.4371  -1.3351
 -1.2546  -1.1680  -0.8319  -0.7474  -0.7100  -0.7010  -0.6711  -0.6008
 -0.5840  -0.5637  -0.4953  -0.4663  -0.4574  -0.4245

                    Cartesian Multipole Moments
 -----------------------------------------------------------------
    Charge (ESU x 10^10)
                -0.0000
    Dipole Moment (Debye)
         X      -0.1620      Y      -0.8934      Z       0.1951
       Tot       0.9287
    Quadrupole Moments (Debye-Ang)
        XX     -34.3582     XY      -0.3334     YY     -33.7967
        XZ       0.6783     YZ      -3.5323     ZZ     -29.2286

 Total job time:  18.60s(wall), 101.33s(cpu)
        *  Thank you very much for using Q-Chem.  Have a nice day.  *
