 Q-Chem 5.3 (devel), Q-Chem, Inc., Pleasanton, CA (2020)
 Q-Chem 5.3.0 for Intel X86 EM64T Linux

User input:
--------------------------------------------------------------
$rem
   JOBTYPE  sp
   EXCHANGE   omegaB97X-D
   BASIS   6-311+G(2df,2pd)
   UNRESTRICTED   True
   max_scf_cycles   250
   geom_opt_max_cycles   1500
   basis2 6-31G*
   scf_algorithm rca_diis
   SYM_IGNORE  TRUE
   print_input   true
   geom_opt_dmax   80
   pop_mulliken false
   XC_GRID 000075000302
$end

$molecule
0 3
N       0.9326497358     1.1198974311     2.5867989329
O       0.6537752629     1.8448279429     3.4887792935
O       1.1778299970     1.3286740061     1.4480635238
N       -0.5224326685     -0.6938465363     3.6032510558
O       -1.2521008894     -1.2866855393     2.9095135948
O       0.9552696924     -0.2178781947     3.0638934893
$end
--------------------------------------------------------------

             Standard Nuclear Orientation (Angstroms)
    I     Atom           X                Y                Z
 ----------------------------------------------------------------
    1      N       0.9326497358     1.1198974311     2.5867989329
    2      O       0.6537752629     1.8448279429     3.4887792935
    3      O       1.1778299970     1.3286740061     1.4480635238
    4      N      -0.5224326685    -0.6938465363     3.6032510558
    5      O      -1.2521008894    -1.2866855393     2.9095135948
    6      O       0.9552696924    -0.2178781947     3.0638934893
 ----------------------------------------------------------------

    8    -409.9132107414      7.64E-05 Convergence criterion met
   12    -410.0689108307      8.20E-06 Convergence criterion met
 Total energy in the final basis set = -410.06891083

                    Orbital Energies (a.u.)
 --------------------------------------------------------------

 Alpha MOs
 -- Occupied --
-19.4078 -19.3988 -19.3581 -19.3390 -14.7707 -14.6239  -1.4440  -1.3695
 -1.2603  -1.2057  -0.8762  -0.7771  -0.7260  -0.7148  -0.6778  -0.6524
 -0.6356  -0.6319  -0.5196  -0.4871  -0.4646  -0.4585  -0.4350  -0.3416

 Beta MOs
 -- Occupied --
-19.3935 -19.3819 -19.3566 -19.3390 -14.7707 -14.6056  -1.4395  -1.3327
 -1.2570  -1.1707  -0.8337  -0.7477  -0.7134  -0.7028  -0.6721  -0.5967
 -0.5867  -0.5628  -0.4943  -0.4694  -0.4600  -0.4267

                    Cartesian Multipole Moments
 -----------------------------------------------------------------
    Charge (ESU x 10^10)
                 0.0000
    Dipole Moment (Debye)
         X      -0.1497      Y      -0.7008      Z       0.1935
       Tot       0.7422
    Quadrupole Moments (Debye-Ang)
        XX     -30.9372     XY      -0.4276     YY     -34.4234
        XZ      -0.3022     YZ      -2.5636     ZZ     -32.3054

 Total job time:  17.65s(wall), 95.50s(cpu)
        *  Thank you very much for using Q-Chem.  Have a nice day.  *
