 Q-Chem 5.3 (devel), Q-Chem, Inc., Pleasanton, CA (2020)
 Q-Chem 5.3.0 for Intel X86 EM64T Linux

User input:
--------------------------------------------------------------
$rem
   JOBTYPE  sp
   EXCHANGE   omegaB97X-D
   BASIS   6-311+G(2df,2pd)
   UNRESTRICTED   True
   max_scf_cycles   250
   geom_opt_max_cycles   1500
   basis2 6-31G*
   scf_algorithm rca_diis
   SYM_IGNORE  TRUE
   print_input   true
   geom_opt_dmax   80
   pop_mulliken false
   XC_GRID 000075000302
$end

$molecule
0 3
N       0.6878559843     1.1322456270     2.4326036628
O       0.5360407731     2.0597167443     1.7021152934
O       1.6570237878     0.6473253898     2.9079829670
N       -0.4597100591     -0.6690155003     3.8032449098
O       0.1067514030     -1.6502923703     3.5180036484
O       -0.5829707590     0.5750092195     2.7363494086
$end
--------------------------------------------------------------

             Standard Nuclear Orientation (Angstroms)
    I     Atom           X                Y                Z
 ----------------------------------------------------------------
    1      N       0.6878559843     1.1322456270     2.4326036628
    2      O       0.5360407731     2.0597167443     1.7021152934
    3      O       1.6570237878     0.6473253898     2.9079829670
    4      N      -0.4597100591    -0.6690155003     3.8032449098
    5      O       0.1067514030    -1.6502923703     3.5180036484
    6      O      -0.5829707590     0.5750092195     2.7363494086
 ----------------------------------------------------------------

    8    -409.9246390917      6.83E-05 Convergence criterion met
   10    -410.0797697794      6.64E-06 Convergence criterion met
 Total energy in the final basis set = -410.07976978

                    Orbital Energies (a.u.)
 --------------------------------------------------------------

 Alpha MOs
 -- Occupied --
-19.4118 -19.4012 -19.3513 -19.3488 -14.7741 -14.6197  -1.4459  -1.3703
 -1.2610  -1.2076  -0.8753  -0.7768  -0.7200  -0.7185  -0.6868  -0.6584
 -0.6400  -0.6239  -0.5043  -0.4979  -0.4660  -0.4613  -0.4389  -0.3396

 Beta MOs
 -- Occupied --
-19.3990 -19.3829 -19.3492 -19.3488 -14.7740 -14.6019  -1.4412  -1.3319
 -1.2582  -1.1750  -0.8308  -0.7463  -0.7169  -0.7032  -0.6740  -0.6077
 -0.5805  -0.5575  -0.4800  -0.4724  -0.4631  -0.4469

                    Cartesian Multipole Moments
 -----------------------------------------------------------------
    Charge (ESU x 10^10)
                -0.0000
    Dipole Moment (Debye)
         X      -0.4915      Y      -0.5498      Z       0.4473
       Tot       0.8625
    Quadrupole Moments (Debye-Ang)
        XX     -33.9007     XY       0.1282     YY     -33.5705
        XZ      -1.9068     YZ      -0.0461     ZZ     -28.7694

 Total job time:  16.04s(wall), 85.51s(cpu)
        *  Thank you very much for using Q-Chem.  Have a nice day.  *
