 Q-Chem 5.3 (devel), Q-Chem, Inc., Pleasanton, CA (2020)
 Q-Chem 5.3.0 for Intel X86 EM64T Linux

User input:
--------------------------------------------------------------
$rem
   JOBTYPE  sp
   EXCHANGE   omegaB97X-D
   BASIS   6-311+G(2df,2pd)
   UNRESTRICTED   True
   max_scf_cycles   250
   geom_opt_max_cycles   1500
   basis2 6-31G*
   scf_algorithm rca_diis
   SYM_IGNORE  TRUE
   print_input   true
   geom_opt_dmax   80
   pop_mulliken false
   XC_GRID 000075000302
$end

$molecule
0 3
N       0.9047064139     1.1603781620     2.7179665813
O       1.4837961514     2.0038077291     3.3263623660
O       0.5192049598     1.1119544746     1.6001727157
N       -0.7751147358     -0.6519284587     3.2957663027
O       -0.8741132031     -1.5759947607     2.5876376183
O       0.6865115439     0.0467719637     3.5723943061
$end
--------------------------------------------------------------

             Standard Nuclear Orientation (Angstroms)
    I     Atom           X                Y                Z
 ----------------------------------------------------------------
    1      N       0.9047064139     1.1603781620     2.7179665813
    2      O       1.4837961514     2.0038077291     3.3263623660
    3      O       0.5192049598     1.1119544746     1.6001727157
    4      N      -0.7751147358    -0.6519284587     3.2957663027
    5      O      -0.8741132031    -1.5759947607     2.5876376183
    6      O       0.6865115439     0.0467719637     3.5723943061
 ----------------------------------------------------------------

    7    -409.9210652393      9.46E-05 Convergence criterion met
   11    -410.0765749683      7.80E-06 Convergence criterion met
 Total energy in the final basis set = -410.07657497

                    Orbital Energies (a.u.)
 --------------------------------------------------------------

 Alpha MOs
 -- Occupied --
-19.4071 -19.4046 -19.3485 -19.3476 -14.7710 -14.6217  -1.4431  -1.3723
 -1.2583  -1.2054  -0.8752  -0.7780  -0.7225  -0.7154  -0.6811  -0.6560
 -0.6374  -0.6309  -0.5136  -0.4857  -0.4656  -0.4577  -0.4369  -0.3429

 Beta MOs
 -- Occupied --
-19.3943 -19.3860 -19.3480 -19.3463 -14.7710 -14.6040  -1.4388  -1.3334
 -1.2559  -1.1723  -0.8304  -0.7476  -0.7130  -0.7026  -0.6727  -0.6012
 -0.5837  -0.5613  -0.4901  -0.4685  -0.4611  -0.4355

                    Cartesian Multipole Moments
 -----------------------------------------------------------------
    Charge (ESU x 10^10)
                -0.0000
    Dipole Moment (Debye)
         X      -0.5062      Y      -0.6974      Z       0.2562
       Tot       0.8990
    Quadrupole Moments (Debye-Ang)
        XX     -31.1286     XY      -1.6391     YY     -33.9092
        XZ      -2.6046     YZ      -2.1317     ZZ     -32.4389

 Total job time:  16.38s(wall), 88.06s(cpu)
        *  Thank you very much for using Q-Chem.  Have a nice day.  *
