 Q-Chem 5.3 (devel), Q-Chem, Inc., Pleasanton, CA (2020)
 Q-Chem 5.3.0 for Intel X86 EM64T Linux

User input:
--------------------------------------------------------------
$rem
   JOBTYPE  sp
   EXCHANGE   omegaB97X-D
   BASIS   6-311+G(2df,2pd)
   UNRESTRICTED   True
   max_scf_cycles   250
   geom_opt_max_cycles   1500
   basis2 6-31G*
   scf_algorithm rca_diis
   SYM_IGNORE  TRUE
   print_input   true
   geom_opt_dmax   80
   pop_mulliken false
   XC_GRID 000075000302
$end

$molecule
0 3
N       0.7185474578     1.2449984756     2.4486803597
O       0.3550727130     2.1759374728     1.8020719133
O       1.7029548209     1.0509948538     3.0761547326
N       0.1191598396     -1.0559214160     3.3355901840
O       -0.6703587489     -1.5572004874     4.0359651918
O       -0.2803849523     0.2361802111     2.4018375086
$end
--------------------------------------------------------------

             Standard Nuclear Orientation (Angstroms)
    I     Atom           X                Y                Z
 ----------------------------------------------------------------
    1      N       0.7185474578     1.2449984756     2.4486803597
    2      O       0.3550727130     2.1759374728     1.8020719133
    3      O       1.7029548209     1.0509948538     3.0761547326
    4      N       0.1191598396    -1.0559214160     3.3355901840
    5      O      -0.6703587489    -1.5572004874     4.0359651918
    6      O      -0.2803849523     0.2361802111     2.4018375086
 ----------------------------------------------------------------

    8    -409.9253083855      8.80E-05 Convergence criterion met
    9    -410.0805176424      9.76E-06 Convergence criterion met
 Total energy in the final basis set = -410.08051764

                    Orbital Energies (a.u.)
 --------------------------------------------------------------

 Alpha MOs
 -- Occupied --
-19.4131 -19.4000 -19.3484 -19.3470 -14.7744 -14.6201  -1.4440  -1.3692
 -1.2589  -1.2089  -0.8734  -0.7785  -0.7196  -0.7183  -0.6846  -0.6542
 -0.6429  -0.6260  -0.5030  -0.4970  -0.4639  -0.4604  -0.4388  -0.3365

 Beta MOs
 -- Occupied --
-19.3992 -19.3823 -19.3474 -19.3464 -14.7745 -14.6016  -1.4397  -1.3311
 -1.2568  -1.1748  -0.8308  -0.7441  -0.7157  -0.7050  -0.6728  -0.6033
 -0.5811  -0.5630  -0.4791  -0.4709  -0.4618  -0.4465

                    Cartesian Multipole Moments
 -----------------------------------------------------------------
    Charge (ESU x 10^10)
                -0.0000
    Dipole Moment (Debye)
         X      -0.2155      Y      -0.7756      Z       0.2086
       Tot       0.8316
    Quadrupole Moments (Debye-Ang)
        XX     -33.3475     XY      -1.1833     YY     -33.7938
        XZ      -1.4561     YZ      -0.7290     ZZ     -30.9872

 Total job time:  14.65s(wall), 77.31s(cpu)
        *  Thank you very much for using Q-Chem.  Have a nice day.  *
