 Q-Chem 5.3 (devel), Q-Chem, Inc., Pleasanton, CA (2020)
 Q-Chem 5.3.0 for Intel X86 EM64T Linux

User input:
--------------------------------------------------------------
$rem
   JOBTYPE  sp
   EXCHANGE   omegaB97X-D
   BASIS   6-311+G(2df,2pd)
   UNRESTRICTED   True
   max_scf_cycles   250
   geom_opt_max_cycles   1500
   basis2 6-31G*
   scf_algorithm rca_diis
   SYM_IGNORE  TRUE
   print_input   true
   geom_opt_dmax   80
   pop_mulliken false
   XC_GRID 000075000302
$end

$molecule
0 3
N       0.7045970756     1.2298051394     2.4624387945
O       0.3618937906     2.1817017880     1.8352936611
O       1.6594409777     1.0213277635     3.1296941107
N       0.0905333983     -1.1102254424     3.2287870030
O       -0.5929330598     -1.4410837729     4.1167914099
O       -0.2785410524     0.2134636342     2.3272949108
$end
--------------------------------------------------------------

             Standard Nuclear Orientation (Angstroms)
    I     Atom           X                Y                Z
 ----------------------------------------------------------------
    1      N       0.7045970756     1.2298051394     2.4624387945
    2      O       0.3618937906     2.1817017880     1.8352936611
    3      O       1.6594409777     1.0213277635     3.1296941107
    4      N       0.0905333983    -1.1102254424     3.2287870030
    5      O      -0.5929330598    -1.4410837729     4.1167914099
    6      O      -0.2785410524     0.2134636342     2.3272949108
 ----------------------------------------------------------------

    7    -409.9259565403      9.05E-05 Convergence criterion met
   10    -410.0812140190      5.44E-06 Convergence criterion met
 Total energy in the final basis set = -410.08121402

                    Orbital Energies (a.u.)
 --------------------------------------------------------------

 Alpha MOs
 -- Occupied --
-19.4126 -19.3998 -19.3492 -19.3475 -14.7737 -14.6205  -1.4443  -1.3692
 -1.2593  -1.2085  -0.8738  -0.7778  -0.7198  -0.7182  -0.6853  -0.6551
 -0.6383  -0.6293  -0.5012  -0.4976  -0.4641  -0.4610  -0.4383  -0.3390

 Beta MOs
 -- Occupied --
-19.3990 -19.3820 -19.3479 -19.3471 -14.7736 -14.6022  -1.4398  -1.3311
 -1.2570  -1.1746  -0.8305  -0.7442  -0.7159  -0.7048  -0.6730  -0.6035
 -0.5830  -0.5603  -0.4788  -0.4710  -0.4623  -0.4469

                    Cartesian Multipole Moments
 -----------------------------------------------------------------
    Charge (ESU x 10^10)
                -0.0000
    Dipole Moment (Debye)
         X      -0.2206      Y      -0.7912      Z       0.1452
       Tot       0.8341
    Quadrupole Moments (Debye-Ang)
        XX     -33.2044     XY      -1.1093     YY     -33.6289
        XZ      -1.6369     YZ      -0.8333     ZZ     -31.5468

 Total job time:  15.39s(wall), 82.17s(cpu)
        *  Thank you very much for using Q-Chem.  Have a nice day.  *
