 Q-Chem 5.3 (devel), Q-Chem, Inc., Pleasanton, CA (2020)
 Q-Chem 5.3.0 for Intel X86 EM64T Linux

User input:
--------------------------------------------------------------
$rem
   JOBTYPE  sp
   EXCHANGE   omegaB97X-D
   BASIS   6-311+G(2df,2pd)
   UNRESTRICTED   True
   max_scf_cycles   250
   geom_opt_max_cycles   1500
   basis2 6-31G*
   scf_algorithm rca_diis
   SYM_IGNORE  TRUE
   print_input   true
   geom_opt_dmax   80
   pop_mulliken false
   XC_GRID 000075000302
$end

$molecule
0 3
N       0.7104756006     1.1975602164     2.4664520649
O       0.2423949330     2.1946943565     2.0153558614
O       1.7030454943     0.9930887985     3.0775296342
N       0.0634069326     -1.1391790777     3.2154904558
O       -0.6200334031     -1.2614445817     4.1552276078
O       -0.1542984272     0.1102693979     2.1702442660
$end
--------------------------------------------------------------

             Standard Nuclear Orientation (Angstroms)
    I     Atom           X                Y                Z
 ----------------------------------------------------------------
    1      N       0.7104756006     1.1975602164     2.4664520649
    2      O       0.2423949330     2.1946943565     2.0153558614
    3      O       1.7030454943     0.9930887985     3.0775296342
    4      N       0.0634069326    -1.1391790777     3.2154904558
    5      O      -0.6200334031    -1.2614445817     4.1552276078
    6      O      -0.1542984272     0.1102693979     2.1702442660
 ----------------------------------------------------------------

    8    -409.9252631040      6.19E-05 Convergence criterion met
   10    -410.0805363165      6.86E-06 Convergence criterion met
 Total energy in the final basis set = -410.08053632

                    Orbital Energies (a.u.)
 --------------------------------------------------------------

 Alpha MOs
 -- Occupied --
-19.4124 -19.3983 -19.3514 -19.3490 -14.7741 -14.6206  -1.4456  -1.3685
 -1.2606  -1.2088  -0.8744  -0.7774  -0.7223  -0.7183  -0.6851  -0.6545
 -0.6344  -0.6317  -0.5076  -0.4940  -0.4656  -0.4614  -0.4383  -0.3401

 Beta MOs
 -- Occupied --
-19.3987 -19.3808 -19.3494 -19.3492 -14.7739 -14.6024  -1.4409  -1.3310
 -1.2581  -1.1746  -0.8311  -0.7454  -0.7169  -0.7044  -0.6738  -0.6024
 -0.5843  -0.5592  -0.4803  -0.4713  -0.4641  -0.4458

                    Cartesian Multipole Moments
 -----------------------------------------------------------------
    Charge (ESU x 10^10)
                -0.0000
    Dipole Moment (Debye)
         X      -0.1697      Y      -0.7603      Z       0.0433
       Tot       0.7802
    Quadrupole Moments (Debye-Ang)
        XX     -33.3092     XY      -0.7124     YY     -33.6247
        XZ      -1.5113     YZ      -1.3043     ZZ     -31.8228

 Total job time:  15.63s(wall), 83.54s(cpu)
        *  Thank you very much for using Q-Chem.  Have a nice day.  *
