 Q-Chem 5.3 (devel), Q-Chem, Inc., Pleasanton, CA (2020)
 Q-Chem 5.3.0 for Intel X86 EM64T Linux

User input:
--------------------------------------------------------------
$rem
   JOBTYPE  sp
   EXCHANGE   omegaB97X-D
   BASIS   6-311+G(2df,2pd)
   UNRESTRICTED   True
   max_scf_cycles   250
   geom_opt_max_cycles   1500
   basis2 6-31G*
   scf_algorithm rca_diis
   SYM_IGNORE  TRUE
   print_input   true
   geom_opt_dmax   80
   pop_mulliken false
   XC_GRID 000075000302
$end

$molecule
0 3
N       0.6677169190     1.0869754141     2.4317125467
O       0.5800909202     2.0979693298     1.8095576012
O       1.6019189363     0.4644956924     2.8061520447
N       -0.5982183523     -0.7354497553     3.6630862883
O       0.3327005117     -1.4414278393     3.6516637491
O       -0.6392178049     0.6224262682     2.7381276601
$end
--------------------------------------------------------------

             Standard Nuclear Orientation (Angstroms)
    I     Atom           X                Y                Z
 ----------------------------------------------------------------
    1      N       0.6677169190     1.0869754141     2.4317125467
    2      O       0.5800909202     2.0979693298     1.8095576012
    3      O       1.6019189363     0.4644956924     2.8061520447
    4      N      -0.5982183523    -0.7354497553     3.6630862883
    5      O       0.3327005117    -1.4414278393     3.6516637491
    6      O      -0.6392178049     0.6224262682     2.7381276601
 ----------------------------------------------------------------

    8    -409.9178116506      8.10E-05 Convergence criterion met
   10    -410.0725729585      6.50E-06 Convergence criterion met
 Total energy in the final basis set = -410.07257296

                    Orbital Energies (a.u.)
 --------------------------------------------------------------

 Alpha MOs
 -- Occupied --
-19.4104 -19.4025 -19.3510 -19.3487 -14.7754 -14.6154  -1.4472  -1.3713
 -1.2623  -1.2065  -0.8753  -0.7793  -0.7208  -0.7136  -0.6860  -0.6606
 -0.6491  -0.6149  -0.5047  -0.5034  -0.4669  -0.4545  -0.4413  -0.3326

 Beta MOs
 -- Occupied --
-19.3979 -19.3835 -19.3488 -19.3485 -14.7757 -14.5974  -1.4425  -1.3320
 -1.2588  -1.1750  -0.8299  -0.7516  -0.7178  -0.6977  -0.6731  -0.6136
 -0.5738  -0.5582  -0.4805  -0.4747  -0.4626  -0.4437

                    Cartesian Multipole Moments
 -----------------------------------------------------------------
    Charge (ESU x 10^10)
                -0.0000
    Dipole Moment (Debye)
         X      -0.4611      Y      -0.6073      Z       0.4029
       Tot       0.8624
    Quadrupole Moments (Debye-Ang)
        XX     -33.8680     XY       0.4303     YY     -33.5792
        XZ      -1.6244     YZ      -0.2808     ZZ     -28.9678

 Total job time:  16.30s(wall), 86.90s(cpu)
        *  Thank you very much for using Q-Chem.  Have a nice day.  *
