 Q-Chem 5.3 (devel), Q-Chem, Inc., Pleasanton, CA (2020)
 Q-Chem 5.3.0 for Intel X86 EM64T Linux

User input:
--------------------------------------------------------------
$rem
   JOBTYPE  sp
   EXCHANGE   omegaB97X-D
   BASIS   6-311+G(2df,2pd)
   UNRESTRICTED   True
   max_scf_cycles   250
   geom_opt_max_cycles   1500
   basis2 6-31G*
   scf_algorithm rca_diis
   SYM_IGNORE  TRUE
   print_input   true
   geom_opt_dmax   80
   pop_mulliken false
   XC_GRID 000075000302
$end

$molecule
0 3
N       0.6695718844     1.0768468638     2.3959567743
O       0.5889532074     2.1978327784     2.0038407229
O       1.5913652477     0.3460646539     2.5250834859
N       -0.5857633940     -0.8980839952     3.3777349272
O       0.3082840006     -1.2500141531     4.0425430807
O       -0.6274198161     0.6223429622     2.7551408991
$end
--------------------------------------------------------------

             Standard Nuclear Orientation (Angstroms)
    I     Atom           X                Y                Z
 ----------------------------------------------------------------
    1      N       0.6695718844     1.0768468638     2.3959567743
    2      O       0.5889532074     2.1978327784     2.0038407229
    3      O       1.5913652477     0.3460646539     2.5250834859
    4      N      -0.5857633940    -0.8980839952     3.3777349272
    5      O       0.3082840006    -1.2500141531     4.0425430807
    6      O      -0.6274198161     0.6223429622     2.7551408991
 ----------------------------------------------------------------

    8    -409.9204857201      8.00E-05 Convergence criterion met
   10    -410.0753758875      7.40E-06 Convergence criterion met
 Total energy in the final basis set = -410.07537589

                    Orbital Energies (a.u.)
 --------------------------------------------------------------

 Alpha MOs
 -- Occupied --
-19.4115 -19.4017 -19.3516 -19.3486 -14.7750 -14.6173  -1.4469  -1.3708
 -1.2619  -1.2072  -0.8755  -0.7779  -0.7210  -0.7156  -0.6866  -0.6603
 -0.6457  -0.6172  -0.5055  -0.5016  -0.4669  -0.4576  -0.4406  -0.3347

 Beta MOs
 -- Occupied --
-19.3989 -19.3831 -19.3490 -19.3489 -14.7751 -14.5993  -1.4422  -1.3321
 -1.2587  -1.1753  -0.8306  -0.7493  -0.7178  -0.7000  -0.6736  -0.6115
 -0.5763  -0.5579  -0.4798  -0.4742  -0.4629  -0.4455

                    Cartesian Multipole Moments
 -----------------------------------------------------------------
    Charge (ESU x 10^10)
                -0.0000
    Dipole Moment (Debye)
         X      -0.5023      Y      -0.6368      Z       0.3015
       Tot       0.8653
    Quadrupole Moments (Debye-Ang)
        XX     -33.7934     XY       0.6137     YY     -33.6915
        XZ      -1.3171     YZ      -0.5604     ZZ     -29.5434

 Total job time:  16.32s(wall), 86.62s(cpu)
        *  Thank you very much for using Q-Chem.  Have a nice day.  *
