 Q-Chem 5.3 (devel), Q-Chem, Inc., Pleasanton, CA (2020)
 Q-Chem 5.3.0 for Intel X86 EM64T Linux

User input:
--------------------------------------------------------------
$rem
   JOBTYPE  sp
   EXCHANGE   omegaB97X-D
   BASIS   6-311+G(2df,2pd)
   UNRESTRICTED   True
   max_scf_cycles   250
   geom_opt_max_cycles   1500
   basis2 6-31G*
   scf_algorithm rca_diis
   SYM_IGNORE  TRUE
   print_input   true
   geom_opt_dmax   80
   pop_mulliken false
   XC_GRID 000075000302
$end

$molecule
0 3
N       0.6635662248     1.0750218264     2.4250016372
O       0.5917894877     2.1290798698     1.8766645778
O       1.5869254697     0.3992913648     2.7270205085
N       -0.6264567031     -0.7884559692     3.5666663217
O       0.3779499231     -1.3510410355     3.7661928438
O       -0.6487832722     0.6310930536     2.7387540011
$end
--------------------------------------------------------------

             Standard Nuclear Orientation (Angstroms)
    I     Atom           X                Y                Z
 ----------------------------------------------------------------
    1      N       0.6635662248     1.0750218264     2.4250016372
    2      O       0.5917894877     2.1290798698     1.8766645778
    3      O       1.5869254697     0.3992913648     2.7270205085
    4      N      -0.6264567031    -0.7884559692     3.5666663217
    5      O       0.3779499231    -1.3510410355     3.7661928438
    6      O      -0.6487832722     0.6310930536     2.7387540011
 ----------------------------------------------------------------

    8    -409.9156669468      8.38E-05 Convergence criterion met
   10    -410.0703147279      5.13E-06 Convergence criterion met
 Total energy in the final basis set = -410.07031473

                    Orbital Energies (a.u.)
 --------------------------------------------------------------

 Alpha MOs
 -- Occupied --
-19.4096 -19.4029 -19.3509 -19.3495 -14.7761 -14.6135  -1.4478  -1.3715
 -1.2630  -1.2061  -0.8750  -0.7808  -0.7214  -0.7118  -0.6858  -0.6602
 -0.6526  -0.6129  -0.5054  -0.5041  -0.4671  -0.4528  -0.4412  -0.3308

 Beta MOs
 -- Occupied --
-19.3971 -19.3838 -19.3492 -19.3485 -14.7765 -14.5954  -1.4431  -1.3320
 -1.2593  -1.1749  -0.8294  -0.7538  -0.7184  -0.6961  -0.6727  -0.6151
 -0.5714  -0.5591  -0.4804  -0.4756  -0.4626  -0.4431

                    Cartesian Multipole Moments
 -----------------------------------------------------------------
    Charge (ESU x 10^10)
                 0.0000
    Dipole Moment (Debye)
         X      -0.4285      Y      -0.6244      Z       0.3694
       Tot       0.8426
    Quadrupole Moments (Debye-Ang)
        XX     -33.8506     XY       0.5160     YY     -33.6389
        XZ      -1.3938     YZ      -0.3695     ZZ     -29.1285

 Total job time:  15.72s(wall), 83.21s(cpu)
        *  Thank you very much for using Q-Chem.  Have a nice day.  *
