 Q-Chem 5.3 (devel), Q-Chem, Inc., Pleasanton, CA (2020)
 Q-Chem 5.3.0 for Intel X86 EM64T Linux

User input:
--------------------------------------------------------------
$rem
   JOBTYPE  sp
   EXCHANGE   omegaB97X-D
   BASIS   6-311+G(2df,2pd)
   UNRESTRICTED   True
   max_scf_cycles   250
   geom_opt_max_cycles   1500
   basis2 6-31G*
   scf_algorithm rca_diis
   SYM_IGNORE  TRUE
   print_input   true
   geom_opt_dmax   80
   pop_mulliken false
   XC_GRID 000075000302
$end

$molecule
0 3
N       0.8815302788     1.1793933360     2.7409429831
O       1.7302927861     1.8560034689     3.2294762203
O       0.3698000643     1.1962547896     1.6740469106
N       -0.8242820237     -0.6535440547     3.1540432267
O       -0.6888583308     -1.6819452759     2.6162730040
O       0.4765083554     0.1988268460     3.6855175453
$end
--------------------------------------------------------------

             Standard Nuclear Orientation (Angstroms)
    I     Atom           X                Y                Z
 ----------------------------------------------------------------
    1      N       0.8815302788     1.1793933360     2.7409429831
    2      O       1.7302927861     1.8560034689     3.2294762203
    3      O       0.3698000643     1.1962547896     1.6740469106
    4      N      -0.8242820237    -0.6535440547     3.1540432267
    5      O      -0.6888583308    -1.6819452759     2.6162730040
    6      O       0.4765083554     0.1988268460     3.6855175453
 ----------------------------------------------------------------

    7    -409.9259067766      9.15E-05 Convergence criterion met
   10    -410.0812180251      5.68E-06 Convergence criterion met
 Total energy in the final basis set = -410.08121803

                    Orbital Energies (a.u.)
 --------------------------------------------------------------

 Alpha MOs
 -- Occupied --
-19.4117 -19.4009 -19.3500 -19.3481 -14.7733 -14.6206  -1.4446  -1.3699
 -1.2597  -1.2077  -0.8745  -0.7773  -0.7202  -0.7181  -0.6858  -0.6564
 -0.6341  -0.6322  -0.5046  -0.4941  -0.4651  -0.4610  -0.4381  -0.3410

 Beta MOs
 -- Occupied --
-19.3986 -19.3828 -19.3485 -19.3477 -14.7731 -14.6026  -1.4400  -1.3316
 -1.2572  -1.1744  -0.8304  -0.7450  -0.7158  -0.7044  -0.6734  -0.6045
 -0.5830  -0.5587  -0.4807  -0.4707  -0.4626  -0.4461

                    Cartesian Multipole Moments
 -----------------------------------------------------------------
    Charge (ESU x 10^10)
                -0.0000
    Dipole Moment (Debye)
         X      -0.5621      Y      -0.5933      Z       0.2441
       Tot       0.8530
    Quadrupole Moments (Debye-Ang)
        XX     -32.0209     XY      -1.8125     YY     -33.4218
        XZ      -2.6389     YZ      -1.4593     ZZ     -32.2664

 Total job time:  15.47s(wall), 82.59s(cpu)
        *  Thank you very much for using Q-Chem.  Have a nice day.  *
