 Q-Chem 5.3 (devel), Q-Chem, Inc., Pleasanton, CA (2020)
 Q-Chem 5.3.0 for Intel X86 EM64T Linux

User input:
--------------------------------------------------------------
$rem
   JOBTYPE  sp
   EXCHANGE   omegaB97X-D
   BASIS   6-311+G(2df,2pd)
   UNRESTRICTED   True
   max_scf_cycles   250
   geom_opt_max_cycles   1500
   basis2 6-31G*
   scf_algorithm rca_diis
   SYM_IGNORE  TRUE
   print_input   true
   geom_opt_dmax   80
   pop_mulliken false
   XC_GRID 000075000302
$end

$molecule
0 3
N       0.7559250163     1.1760957664     2.4574845334
O       0.0517819650     2.1168394760     2.2676224108
O       1.8626712032     1.0833353538     2.8660524397
N       0.0583889200     -1.1040905918     3.3259892639
O       -0.8327756982     -1.1727993793     4.0784852351
O       0.0489997238     -0.0043915151     2.1046660071
$end
--------------------------------------------------------------

             Standard Nuclear Orientation (Angstroms)
    I     Atom           X                Y                Z
 ----------------------------------------------------------------
    1      N       0.7559250163     1.1760957664     2.4574845334
    2      O       0.0517819650     2.1168394760     2.2676224108
    3      O       1.8626712032     1.0833353538     2.8660524397
    4      N       0.0583889200    -1.1040905918     3.3259892639
    5      O      -0.8327756982    -1.1727993793     4.0784852351
    6      O       0.0489997238    -0.0043915151     2.1046660071
 ----------------------------------------------------------------

    8    -409.9202010994      8.17E-05 Convergence criterion met
   11    -410.0757865466      8.09E-06 Convergence criterion met
 Total energy in the final basis set = -410.07578655

                    Orbital Energies (a.u.)
 --------------------------------------------------------------

 Alpha MOs
 -- Occupied --
-19.4102 -19.3964 -19.3532 -19.3508 -14.7738 -14.6209  -1.4462  -1.3673
 -1.2614  -1.2088  -0.8744  -0.7782  -0.7261  -0.7168  -0.6821  -0.6513
 -0.6339  -0.6307  -0.5207  -0.4875  -0.4676  -0.4583  -0.4391  -0.3396

 Beta MOs
 -- Occupied --
-19.3961 -19.3795 -19.3513 -19.3506 -14.7737 -14.6027  -1.4416  -1.3306
 -1.2588  -1.1734  -0.8319  -0.7486  -0.7162  -0.7030  -0.6746  -0.5975
 -0.5852  -0.5604  -0.4908  -0.4699  -0.4648  -0.4360

                    Cartesian Multipole Moments
 -----------------------------------------------------------------
    Charge (ESU x 10^10)
                 0.0000
    Dipole Moment (Debye)
         X      -0.0958      Y      -0.6695      Z      -0.0043
       Tot       0.6764
    Quadrupole Moments (Debye-Ang)
        XX     -33.9608     XY      -0.3922     YY     -33.5758
        XZ      -0.7893     YZ      -1.8718     ZZ     -31.3156

 Total job time:  16.72s(wall), 90.00s(cpu)
        *  Thank you very much for using Q-Chem.  Have a nice day.  *
