 Q-Chem 5.3 (devel), Q-Chem, Inc., Pleasanton, CA (2020)
 Q-Chem 5.3.0 for Intel X86 EM64T Linux

User input:
--------------------------------------------------------------
$rem
   JOBTYPE  sp
   EXCHANGE   omegaB97X-D
   BASIS   6-311+G(2df,2pd)
   UNRESTRICTED   True
   max_scf_cycles   250
   geom_opt_max_cycles   1500
   basis2 6-31G*
   scf_algorithm rca_diis
   SYM_IGNORE  TRUE
   print_input   true
   geom_opt_dmax   80
   pop_mulliken false
   XC_GRID 000075000302
$end

$molecule
0 3
N       0.7245133932     1.2148311037     2.4228653370
O       0.4474450967     2.0777194859     1.6511655323
O       1.7384667756     0.9277796350     2.9613069244
N       -0.1517169159     -0.7240114384     3.8060561927
O       -0.3739278300     -1.8467591234     3.5710978855
O       -0.4397893894     0.4454294470     2.6878080181
$end
--------------------------------------------------------------

             Standard Nuclear Orientation (Angstroms)
    I     Atom           X                Y                Z
 ----------------------------------------------------------------
    1      N       0.7245133932     1.2148311037     2.4228653370
    2      O       0.4474450967     2.0777194859     1.6511655323
    3      O       1.7384667756     0.9277796350     2.9613069244
    4      N      -0.1517169159    -0.7240114384     3.8060561927
    5      O      -0.3739278300    -1.8467591234     3.5710978855
    6      O      -0.4397893894     0.4454294470     2.6878080181
 ----------------------------------------------------------------

    7    -409.9256098097      9.30E-05 Convergence criterion met
   10    -410.0808731742      5.42E-06 Convergence criterion met
 Total energy in the final basis set = -410.08087317

                    Orbital Energies (a.u.)
 --------------------------------------------------------------

 Alpha MOs
 -- Occupied --
-19.4125 -19.4002 -19.3486 -19.3471 -14.7737 -14.6204  -1.4439  -1.3694
 -1.2589  -1.2084  -0.8737  -0.7781  -0.7198  -0.7179  -0.6849  -0.6549
 -0.6400  -0.6282  -0.5036  -0.4953  -0.4640  -0.4604  -0.4384  -0.3381

 Beta MOs
 -- Occupied --
-19.3988 -19.3824 -19.3475 -19.3466 -14.7737 -14.6021  -1.4395  -1.3312
 -1.2567  -1.1745  -0.8305  -0.7442  -0.7156  -0.7048  -0.6728  -0.6033
 -0.5823  -0.5614  -0.4798  -0.4704  -0.4619  -0.4462

                    Cartesian Multipole Moments
 -----------------------------------------------------------------
    Charge (ESU x 10^10)
                -0.0000
    Dipole Moment (Debye)
         X      -0.3639      Y      -0.6003      Z       0.4662
       Tot       0.8427
    Quadrupole Moments (Debye-Ang)
        XX     -33.8453     XY      -0.6633     YY     -33.8889
        XZ      -1.5265     YZ      -0.0663     ZZ     -28.8196

 Total job time:  15.48s(wall), 82.67s(cpu)
        *  Thank you very much for using Q-Chem.  Have a nice day.  *
