 Q-Chem 5.3 (devel), Q-Chem, Inc., Pleasanton, CA (2020)
 Q-Chem 5.3.0 for Intel X86 EM64T Linux

User input:
--------------------------------------------------------------
$rem
   JOBTYPE  sp
   EXCHANGE   omegaB97X-D
   BASIS   6-311+G(2df,2pd)
   UNRESTRICTED   True
   max_scf_cycles   250
   geom_opt_max_cycles   1500
   basis2 6-31G*
   scf_algorithm rca_diis
   SYM_IGNORE  TRUE
   print_input   true
   geom_opt_dmax   80
   pop_mulliken false
   XC_GRID 000075000302
$end

$molecule
0 3
N       0.8387994422     1.1364286492     2.4554012988
O       -0.1000431673     1.8244505705     2.7045281340
O       2.0010921349     1.3578842017     2.4341295972
N       -0.0328065424     -1.0070001243     3.4975735500
O       -1.1413209663     -1.0456999073     3.8647840612
O       0.3792702289     -0.1710742800     2.1438832488
$end
--------------------------------------------------------------

             Standard Nuclear Orientation (Angstroms)
    I     Atom           X                Y                Z
 ----------------------------------------------------------------
    1      N       0.8387994422     1.1364286492     2.4554012988
    2      O      -0.1000431673     1.8244505705     2.7045281340
    3      O       2.0010921349     1.3578842017     2.4341295972
    4      N      -0.0328065424    -1.0070001243     3.4975735500
    5      O      -1.1413209663    -1.0456999073     3.8647840612
    6      O       0.3792702289    -0.1710742800     2.1438832488
 ----------------------------------------------------------------

    8    -409.9107769512      8.30E-05 Convergence criterion met
   14    -410.0667667295      5.19E-06 Convergence criterion met
 Total energy in the final basis set = -410.06676673

                    Orbital Energies (a.u.)
 --------------------------------------------------------------

 Alpha MOs
 -- Occupied --
-19.4027 -19.4006 -19.3518 -19.3441 -14.7687 -14.6271  -1.4425  -1.3719
 -1.2582  -1.2029  -0.8767  -0.7778  -0.7270  -0.7129  -0.6755  -0.6534
 -0.6372  -0.6305  -0.5183  -0.4829  -0.4657  -0.4591  -0.4312  -0.3437

 Beta MOs
 -- Occupied --
-19.3873 -19.3851 -19.3518 -19.3425 -14.7690 -14.6087  -1.4384  -1.3340
 -1.2558  -1.1686  -0.8317  -0.7490  -0.7109  -0.7006  -0.6729  -0.5988
 -0.5832  -0.5635  -0.4999  -0.4668  -0.4595  -0.4220

                    Cartesian Multipole Moments
 -----------------------------------------------------------------
    Charge (ESU x 10^10)
                -0.0000
    Dipole Moment (Debye)
         X      -0.1243      Y      -0.8091      Z       0.1444
       Tot       0.8313
    Quadrupole Moments (Debye-Ang)
        XX     -34.6081     XY      -0.3330     YY     -33.6197
        XZ       0.3899     YZ      -3.2559     ZZ     -29.5482

 Total job time:  19.56s(wall), 106.89s(cpu)
        *  Thank you very much for using Q-Chem.  Have a nice day.  *
