 Q-Chem 5.3 (devel), Q-Chem, Inc., Pleasanton, CA (2020)
 Q-Chem 5.3.0 for Intel X86 EM64T Linux

User input:
--------------------------------------------------------------
$rem
   JOBTYPE  sp
   EXCHANGE   omegaB97X-D
   BASIS   6-311+G(2df,2pd)
   UNRESTRICTED   True
   max_scf_cycles   250
   geom_opt_max_cycles   1500
   basis2 6-31G*
   scf_algorithm rca_diis
   SYM_IGNORE  TRUE
   print_input   true
   geom_opt_dmax   80
   pop_mulliken false
   XC_GRID 000075000302
$end

$molecule
0 3
N       0.7287579365     1.2259054382     2.4221006726
O       0.4326028049     2.0874749900     1.6560368142
O       1.7464992490     0.9634297353     2.9659099008
N       -0.1012378888     -0.7502093371     3.7808442928
O       -0.4469646423     -1.8522592761     3.6044798841
O       -0.4146663292     0.4206475596     2.6709283255
$end
--------------------------------------------------------------

             Standard Nuclear Orientation (Angstroms)
    I     Atom           X                Y                Z
 ----------------------------------------------------------------
    1      N       0.7287579365     1.2259054382     2.4221006726
    2      O       0.4326028049     2.0874749900     1.6560368142
    3      O       1.7464992490     0.9634297353     2.9659099008
    4      N      -0.1012378888    -0.7502093371     3.7808442928
    5      O      -0.4469646423    -1.8522592761     3.6044798841
    6      O      -0.4146663292     0.4206475596     2.6709283255
 ----------------------------------------------------------------

    8    -409.9253200352      8.68E-05 Convergence criterion met
    9    -410.0805209857      9.81E-06 Convergence criterion met
 Total energy in the final basis set = -410.08052099

                    Orbital Energies (a.u.)
 --------------------------------------------------------------

 Alpha MOs
 -- Occupied --
-19.4129 -19.4003 -19.3484 -19.3469 -14.7741 -14.6201  -1.4439  -1.3693
 -1.2588  -1.2087  -0.8734  -0.7784  -0.7197  -0.7179  -0.6846  -0.6545
 -0.6422  -0.6266  -0.5044  -0.4954  -0.4639  -0.4602  -0.4387  -0.3368

 Beta MOs
 -- Occupied --
-19.3991 -19.3825 -19.3473 -19.3463 -14.7742 -14.6017  -1.4396  -1.3312
 -1.2566  -1.1747  -0.8306  -0.7442  -0.7156  -0.7049  -0.6727  -0.6033
 -0.5812  -0.5628  -0.4799  -0.4705  -0.4617  -0.4460

                    Cartesian Multipole Moments
 -----------------------------------------------------------------
    Charge (ESU x 10^10)
                -0.0000
    Dipole Moment (Debye)
         X      -0.3389      Y      -0.6187      Z       0.4544
       Tot       0.8391
    Quadrupole Moments (Debye-Ang)
        XX     -33.8101     XY      -0.7803     YY     -33.9326
        XZ      -1.4549     YZ      -0.1216     ZZ     -28.9338

 Total job time:  14.69s(wall), 78.01s(cpu)
        *  Thank you very much for using Q-Chem.  Have a nice day.  *
