 Q-Chem 5.3 (devel), Q-Chem, Inc., Pleasanton, CA (2020)
 Q-Chem 5.3.0 for Intel X86 EM64T Linux

User input:
--------------------------------------------------------------
$rem
   JOBTYPE  sp
   EXCHANGE   omegaB97X-D
   BASIS   6-311+G(2df,2pd)
   UNRESTRICTED   True
   max_scf_cycles   250
   geom_opt_max_cycles   1500
   basis2 6-31G*
   scf_algorithm rca_diis
   SYM_IGNORE  TRUE
   print_input   true
   geom_opt_dmax   80
   pop_mulliken false
   XC_GRID 000075000302
$end

$molecule
0 3
N       0.9315522490     1.1030341445     2.5217931252
O       0.2936107767     1.6471625622     3.3666710647
O       1.5286802012     1.5177787279     1.5880669931
N       -0.3749065536     -0.7396849389     3.6783650760
O       -1.3530062437     -1.1373025702     3.1779985341
O       0.9190607005     -0.2959988157     2.7674050969
$end
--------------------------------------------------------------

             Standard Nuclear Orientation (Angstroms)
    I     Atom           X                Y                Z
 ----------------------------------------------------------------
    1      N       0.9315522490     1.1030341445     2.5217931252
    2      O       0.2936107767     1.6471625622     3.3666710647
    3      O       1.5286802012     1.5177787279     1.5880669931
    4      N      -0.3749065536    -0.7396849389     3.6783650760
    5      O      -1.3530062437    -1.1373025702     3.1779985341
    6      O       0.9190607005    -0.2959988157     2.7674050969
 ----------------------------------------------------------------

    8    -409.9159246191      6.36E-05 Convergence criterion met
   10    -410.0713856687      7.65E-06 Convergence criterion met
 Total energy in the final basis set = -410.07138567

                    Orbital Energies (a.u.)
 --------------------------------------------------------------

 Alpha MOs
 -- Occupied --
-19.4110 -19.3998 -19.3569 -19.3340 -14.7715 -14.6221  -1.4435  -1.3696
 -1.2602  -1.2050  -0.8767  -0.7747  -0.7202  -0.7169  -0.6820  -0.6572
 -0.6360  -0.6318  -0.5043  -0.4925  -0.4617  -0.4575  -0.4398  -0.3393

 Beta MOs
 -- Occupied --
-19.3969 -19.3826 -19.3555 -19.3342 -14.7712 -14.6036  -1.4387  -1.3323
 -1.2565  -1.1710  -0.8340  -0.7415  -0.7149  -0.7049  -0.6705  -0.6042
 -0.5858  -0.5604  -0.4795  -0.4690  -0.4608  -0.4362

                    Cartesian Multipole Moments
 -----------------------------------------------------------------
    Charge (ESU x 10^10)
                -0.0000
    Dipole Moment (Debye)
         X      -0.1307      Y      -0.7793      Z       0.2375
       Tot       0.8251
    Quadrupole Moments (Debye-Ang)
        XX     -32.2189     XY      -0.3030     YY     -34.3163
        XZ       0.8214     YZ      -2.5097     ZZ     -30.8515

 Total job time:  15.99s(wall), 85.43s(cpu)
        *  Thank you very much for using Q-Chem.  Have a nice day.  *
