 Q-Chem 5.3 (devel), Q-Chem, Inc., Pleasanton, CA (2020)
 Q-Chem 5.3.0 for Intel X86 EM64T Linux

User input:
--------------------------------------------------------------
$rem
   JOBTYPE  sp
   EXCHANGE   omegaB97X-D
   BASIS   6-311+G(2df,2pd)
   UNRESTRICTED   True
   max_scf_cycles   250
   geom_opt_max_cycles   1500
   basis2 6-31G*
   scf_algorithm rca_diis
   SYM_IGNORE  TRUE
   print_input   true
   geom_opt_dmax   80
   pop_mulliken false
   XC_GRID 000075000302
$end

$molecule
0 3
N       0.6714879611     1.0959890919     2.4332850192
O       0.5712872950     2.0848718632     1.7783541216
O       1.6132885375     0.5051033742     2.8386059950
N       -0.5727752587     -0.7126446615     3.7063757021
O       0.2912450992     -1.4926434003     3.6053002389
O       -0.6295425039     0.6143128424     2.7383788132
$end
--------------------------------------------------------------

             Standard Nuclear Orientation (Angstroms)
    I     Atom           X                Y                Z
 ----------------------------------------------------------------
    1      N       0.6714879611     1.0959890919     2.4332850192
    2      O       0.5712872950     2.0848718632     1.7783541216
    3      O       1.6132885375     0.5051033742     2.8386059950
    4      N      -0.5727752587    -0.7126446615     3.7063757021
    5      O       0.2912450992    -1.4926434003     3.6053002389
    6      O      -0.6295425039     0.6143128424     2.7383788132
 ----------------------------------------------------------------

    8    -409.9196856418      7.89E-05 Convergence criterion met
   10    -410.0745292012      7.04E-06 Convergence criterion met
 Total energy in the final basis set = -410.07452920

                    Orbital Energies (a.u.)
 --------------------------------------------------------------

 Alpha MOs
 -- Occupied --
-19.4110 -19.4021 -19.3512 -19.3485 -14.7750 -14.6168  -1.4468  -1.3711
 -1.2618  -1.2069  -0.8754  -0.7783  -0.7206  -0.7151  -0.6863  -0.6604
 -0.6467  -0.6167  -0.5047  -0.5021  -0.4667  -0.4564  -0.4409  -0.3344

 Beta MOs
 -- Occupied --
-19.3984 -19.3833 -19.3487 -19.3486 -14.7752 -14.5988  -1.4421  -1.3321
 -1.2586  -1.1751  -0.8303  -0.7499  -0.7175  -0.6992  -0.6734  -0.6122
 -0.5756  -0.5577  -0.4804  -0.4741  -0.4628  -0.4445

                    Cartesian Multipole Moments
 -----------------------------------------------------------------
    Charge (ESU x 10^10)
                -0.0000
    Dipole Moment (Debye)
         X      -0.4825      Y      -0.5947      Z       0.4155
       Tot       0.8713
    Quadrupole Moments (Debye-Ang)
        XX     -33.8758     XY       0.3742     YY     -33.5554
        XZ      -1.7519     YZ      -0.2317     ZZ     -28.9126

 Total job time:  16.20s(wall), 86.21s(cpu)
        *  Thank you very much for using Q-Chem.  Have a nice day.  *
