 Q-Chem 5.3 (devel), Q-Chem, Inc., Pleasanton, CA (2020)
 Q-Chem 5.3.0 for Intel X86 EM64T Linux

User input:
--------------------------------------------------------------
$rem
   JOBTYPE  sp
   EXCHANGE   omegaB97X-D
   BASIS   6-311+G(2df,2pd)
   UNRESTRICTED   True
   max_scf_cycles   250
   geom_opt_max_cycles   1500
   basis2 6-31G*
   scf_algorithm rca_diis
   SYM_IGNORE  TRUE
   print_input   true
   geom_opt_dmax   80
   pop_mulliken false
   XC_GRID 000075000302
$end

$molecule
0 3
N       0.6824556102     1.2206449339     2.4720267448
O       0.3703364901     2.1914116714     1.8473935087
O       1.5904630760     0.9626827528     3.1843335494
N       0.0358156467     -1.1485290784     3.1423981851
O       -0.4875488806     -1.3353570369     4.1724201532
O       -0.2465308124     0.2041358671     2.2817277487
$end
--------------------------------------------------------------

             Standard Nuclear Orientation (Angstroms)
    I     Atom           X                Y                Z
 ----------------------------------------------------------------
    1      N       0.6824556102     1.2206449339     2.4720267448
    2      O       0.3703364901     2.1914116714     1.8473935087
    3      O       1.5904630760     0.9626827528     3.1843335494
    4      N       0.0358156467    -1.1485290784     3.1423981851
    5      O      -0.4875488806    -1.3353570369     4.1724201532
    6      O      -0.2465308124     0.2041358671     2.2817277487
 ----------------------------------------------------------------

    8    -409.9245582623      6.73E-05 Convergence criterion met
   10    -410.0799151140      5.13E-06 Convergence criterion met
 Total energy in the final basis set = -410.07991511

                    Orbital Energies (a.u.)
 --------------------------------------------------------------

 Alpha MOs
 -- Occupied --
-19.4124 -19.4006 -19.3509 -19.3446 -14.7751 -14.6228  -1.4482  -1.3691
 -1.2603  -1.2153  -0.8841  -0.7752  -0.7218  -0.7207  -0.6870  -0.6565
 -0.6336  -0.6304  -0.5028  -0.4979  -0.4644  -0.4604  -0.4381  -0.3424

 Beta MOs
 -- Occupied --
-19.3996 -19.3825 -19.3486 -19.3450 -14.7749 -14.6044  -1.4428  -1.3306
 -1.2577  -1.1839  -0.8402  -0.7422  -0.7191  -0.7051  -0.6738  -0.6035
 -0.5838  -0.5573  -0.4795  -0.4703  -0.4630  -0.4466

                    Cartesian Multipole Moments
 -----------------------------------------------------------------
    Charge (ESU x 10^10)
                -0.0000
    Dipole Moment (Debye)
         X      -0.2768      Y      -0.8258      Z       0.0829
       Tot       0.8749
    Quadrupole Moments (Debye-Ang)
        XX     -33.1635     XY      -1.0407     YY     -33.4698
        XZ      -1.9868     YZ      -0.9559     ZZ     -32.0886

 Total job time:  15.35s(wall), 82.15s(cpu)
        *  Thank you very much for using Q-Chem.  Have a nice day.  *
