 Q-Chem 5.3 (devel), Q-Chem, Inc., Pleasanton, CA (2020)
 Q-Chem 5.3.0 for Intel X86 EM64T Linux

User input:
--------------------------------------------------------------
$rem
   JOBTYPE  sp
   EXCHANGE   omegaB97X-D
   BASIS   6-311+G(2df,2pd)
   UNRESTRICTED   True
   max_scf_cycles   250
   geom_opt_max_cycles   1500
   basis2 6-31G*
   scf_algorithm rca_diis
   SYM_IGNORE  TRUE
   print_input   true
   geom_opt_dmax   80
   pop_mulliken false
   XC_GRID 000075000302
$end

$molecule
0 3
N       0.6665502594     1.2415201979     2.5011685061
O       0.3837454238     2.2101613057     1.8739405454
O       1.6263575359     0.9845042882     3.1443160966
N       0.0594743115     -1.1756711753     3.1604392719
O       -0.5233525169     -1.3150542672     4.1683252639
O       -0.2677838837     0.1495287606     2.2521102061
$end
--------------------------------------------------------------

             Standard Nuclear Orientation (Angstroms)
    I     Atom           X                Y                Z
 ----------------------------------------------------------------
    1      N       0.6665502594     1.2415201979     2.5011685061
    2      O       0.3837454238     2.2101613057     1.8739405454
    3      O       1.6263575359     0.9845042882     3.1443160966
    4      N       0.0594743115    -1.1756711753     3.1604392719
    5      O      -0.5233525169    -1.3150542672     4.1683252639
    6      O      -0.2677838837     0.1495287606     2.2521102061
 ----------------------------------------------------------------

    7    -409.9236713259      8.83E-05 Convergence criterion met
   10    -410.0788781076      5.08E-06 Convergence criterion met
 Total energy in the final basis set = -410.07887811

                    Orbital Energies (a.u.)
 --------------------------------------------------------------

 Alpha MOs
 -- Occupied --
-19.4092 -19.4004 -19.3541 -19.3481 -14.7720 -14.6214  -1.4404  -1.3675
 -1.2580  -1.1987  -0.8715  -0.7775  -0.7204  -0.7137  -0.6834  -0.6559
 -0.6335  -0.6322  -0.4993  -0.4938  -0.4655  -0.4609  -0.4417  -0.3414

 Beta MOs
 -- Occupied --
-19.3962 -19.3821 -19.3523 -19.3484 -14.7716 -14.6036  -1.4367  -1.3288
 -1.2560  -1.1636  -0.8286  -0.7452  -0.7129  -0.7040  -0.6729  -0.6022
 -0.5822  -0.5583  -0.4751  -0.4688  -0.4643  -0.4480

                    Cartesian Multipole Moments
 -----------------------------------------------------------------
    Charge (ESU x 10^10)
                -0.0000
    Dipole Moment (Debye)
         X      -0.2570      Y      -0.6837      Z       0.1609
       Tot       0.7479
    Quadrupole Moments (Debye-Ang)
        XX     -33.2211     XY      -0.9596     YY     -33.1594
        XZ      -1.7661     YZ      -0.6971     ZZ     -31.5850

 Total job time:  15.35s(wall), 81.86s(cpu)
        *  Thank you very much for using Q-Chem.  Have a nice day.  *
