 Q-Chem 5.3 (devel), Q-Chem, Inc., Pleasanton, CA (2020)
 Q-Chem 5.3.0 for Intel X86 EM64T Linux

User input:
--------------------------------------------------------------
$rem
   JOBTYPE  sp
   EXCHANGE   omegaB97X-D
   BASIS   6-311+G(2df,2pd)
   UNRESTRICTED   True
   max_scf_cycles   250
   geom_opt_max_cycles   1500
   basis2 6-31G*
   scf_algorithm rca_diis
   SYM_IGNORE  TRUE
   print_input   true
   geom_opt_dmax   80
   pop_mulliken false
   XC_GRID 000075000302
$end

$molecule
0 3
N       0.7878475987     1.2786508418     2.4832026191
O       0.2706258337     2.1260496121     1.8292102732
O       1.8030841530     1.2406809792     3.0839351790
N       -0.1052841804     -1.2555015861     3.1326188024
O       -0.6593976092     -1.4713511781     4.1495682475
O       -0.1518846657     0.1764604410     2.4217647687
$end
--------------------------------------------------------------

             Standard Nuclear Orientation (Angstroms)
    I     Atom           X                Y                Z
 ----------------------------------------------------------------
    1      N       0.7878475987     1.2786508418     2.4832026191
    2      O       0.2706258337     2.1260496121     1.8292102732
    3      O       1.8030841530     1.2406809792     3.0839351790
    4      N      -0.1052841804    -1.2555015861     3.1326188024
    5      O      -0.6593976092    -1.4713511781     4.1495682475
    6      O      -0.1518846657     0.1764604410     2.4217647687
 ----------------------------------------------------------------

    8    -409.9152665891      5.96E-05 Convergence criterion met
   10    -410.0709732907      5.81E-06 Convergence criterion met
 Total energy in the final basis set = -410.07097329

                    Orbital Energies (a.u.)
 --------------------------------------------------------------

 Alpha MOs
 -- Occupied --
-19.4013 -19.3926 -19.3591 -19.3584 -14.7764 -14.6194  -1.4464  -1.3579
 -1.2697  -1.1944  -0.8872  -0.7725  -0.7241  -0.7193  -0.6842  -0.6490
 -0.6276  -0.6149  -0.5126  -0.4919  -0.4708  -0.4638  -0.4304  -0.3373

 Beta MOs
 -- Occupied --
-19.3894 -19.3746 -19.3595 -19.3553 -14.7759 -14.6014  -1.4419  -1.3192
 -1.2660  -1.1622  -0.8466  -0.7453  -0.7172  -0.7003  -0.6772  -0.5866
 -0.5773  -0.5510  -0.4789  -0.4733  -0.4636  -0.4510

                    Cartesian Multipole Moments
 -----------------------------------------------------------------
    Charge (ESU x 10^10)
                -0.0000
    Dipole Moment (Debye)
         X       0.0661      Y      -0.4511      Z       0.0830
       Tot       0.4634
    Quadrupole Moments (Debye-Ang)
        XX     -33.2345     XY      -0.6373     YY     -32.9979
        XZ      -0.8691     YZ       0.2076     ZZ     -31.9794

 Total job time:  15.08s(wall), 80.69s(cpu)
        *  Thank you very much for using Q-Chem.  Have a nice day.  *
