 Q-Chem 5.3 (devel), Q-Chem, Inc., Pleasanton, CA (2020)
 Q-Chem 5.3.0 for Intel X86 EM64T Linux

User input:
--------------------------------------------------------------
$rem
   JOBTYPE  sp
   EXCHANGE   omegaB97X-D
   BASIS   6-311+G(2df,2pd)
   UNRESTRICTED   True
   max_scf_cycles   250
   geom_opt_max_cycles   1500
   basis2 6-31G*
   scf_algorithm rca_diis
   SYM_IGNORE  TRUE
   print_input   true
   geom_opt_dmax   80
   pop_mulliken false
   XC_GRID 000075000302
$end

$molecule
0 3
N       0.6955935695     1.1879224249     2.4947168103
O       0.3961093871     2.1528694373     1.8864234600
O       1.6283470519     1.0213182627     3.2065401802
N       0.0386174606     -1.1506587796     3.1333544914
O       -0.4584818979     -1.3018645198     4.1754762628
O       -0.3551944412     0.1854022843     2.2037886852
$end
--------------------------------------------------------------

             Standard Nuclear Orientation (Angstroms)
    I     Atom           X                Y                Z
 ----------------------------------------------------------------
    1      N       0.6955935695     1.1879224249     2.4947168103
    2      O       0.3961093871     2.1528694373     1.8864234600
    3      O       1.6283470519     1.0213182627     3.2065401802
    4      N       0.0386174606    -1.1506587796     3.1333544914
    5      O      -0.4584818979    -1.3018645198     4.1754762628
    6      O      -0.3551944412     0.1854022843     2.2037886852
 ----------------------------------------------------------------

    8    -409.9206605617      8.79E-05 Convergence criterion met
   10    -410.0758564207      7.14E-06 Convergence criterion met
 Total energy in the final basis set = -410.07585642

                    Orbital Energies (a.u.)
 --------------------------------------------------------------

 Alpha MOs
 -- Occupied --
-19.4116 -19.3988 -19.3541 -19.3491 -14.7704 -14.6157  -1.4428  -1.3698
 -1.2594  -1.1927  -0.8567  -0.7818  -0.7184  -0.7147  -0.6847  -0.6555
 -0.6383  -0.6304  -0.4992  -0.4958  -0.4654  -0.4638  -0.4377  -0.3365

 Beta MOs
 -- Occupied --
-19.3972 -19.3814 -19.3546 -19.3469 -14.7701 -14.5982  -1.4393  -1.3328
 -1.2569  -1.1548  -0.8137  -0.7496  -0.7129  -0.7038  -0.6730  -0.6060
 -0.5824  -0.5606  -0.4775  -0.4732  -0.4616  -0.4467

                    Cartesian Multipole Moments
 -----------------------------------------------------------------
    Charge (ESU x 10^10)
                -0.0000
    Dipole Moment (Debye)
         X      -0.1713      Y      -0.7243      Z       0.1096
       Tot       0.7523
    Quadrupole Moments (Debye-Ang)
        XX     -32.8530     XY      -0.8928     YY     -33.3224
        XZ      -1.6012     YZ      -0.8159     ZZ     -32.0115

 Total job time:  15.28s(wall), 81.53s(cpu)
        *  Thank you very much for using Q-Chem.  Have a nice day.  *
