 Q-Chem 5.3 (devel), Q-Chem, Inc., Pleasanton, CA (2020)
 Q-Chem 5.3.0 for Intel X86 EM64T Linux

User input:
--------------------------------------------------------------
$rem
   JOBTYPE  sp
   EXCHANGE   omegaB97X-D
   BASIS   6-311+G(2df,2pd)
   UNRESTRICTED   True
   max_scf_cycles   250
   geom_opt_max_cycles   1500
   basis2 6-31G*
   scf_algorithm rca_diis
   SYM_IGNORE  TRUE
   print_input   true
   geom_opt_dmax   80
   pop_mulliken false
   XC_GRID 000075000302
$end

$molecule
0 3
N       0.6543515908     1.3254095570     2.4279771016
O       0.5002064568     2.3773228062     1.9279214416
O       1.5517254861     0.9973980492     3.0915061176
N       0.1030561654     -1.3406934504     3.1745989086
O       -0.5492679994     -1.2286010170     4.1571506732
O       -0.3150805696     -0.0358468352     2.3211456474
$end
--------------------------------------------------------------

             Standard Nuclear Orientation (Angstroms)
    I     Atom           X                Y                Z
 ----------------------------------------------------------------
    1      N       0.6543515908     1.3254095570     2.4279771016
    2      O       0.5002064568     2.3773228062     1.9279214416
    3      O       1.5517254861     0.9973980492     3.0915061176
    4      N       0.1030561654    -1.3406934504     3.1745989086
    5      O      -0.5492679994    -1.2286010170     4.1571506732
    6      O      -0.3150805696    -0.0358468352     2.3211456474
 ----------------------------------------------------------------

    9    -409.8821370306      5.63E-05 Convergence criterion met
   11    -410.0381435860      7.37E-06 Convergence criterion met
 Total energy in the final basis set = -410.03814359

                    Orbital Energies (a.u.)
 --------------------------------------------------------------

 Alpha MOs
 -- Occupied --
-19.4069 -19.3845 -19.3697 -19.3468 -14.7564 -14.6153  -1.4433  -1.3680
 -1.2636  -1.1442  -0.8503  -0.7792  -0.7170  -0.7088  -0.6764  -0.6567
 -0.6373  -0.6246  -0.4916  -0.4752  -0.4638  -0.4585  -0.4423  -0.3346

 Beta MOs
 -- Occupied --
-19.3860 -19.3718 -19.3681 -19.3470 -14.7547 -14.6019  -1.4406  -1.3271
 -1.2611  -1.1019  -0.8113  -0.7498  -0.7067  -0.7038  -0.6727  -0.5949
 -0.5786  -0.5630  -0.4717  -0.4605  -0.4455  -0.4336

                    Cartesian Multipole Moments
 -----------------------------------------------------------------
    Charge (ESU x 10^10)
                 0.0000
    Dipole Moment (Debye)
         X      -0.1239      Y      -0.2684      Z       0.1394
       Tot       0.3268
    Quadrupole Moments (Debye-Ang)
        XX     -33.1328     XY      -0.3713     YY     -32.0105
        XZ      -1.3284     YZ      -0.5393     ZZ     -31.0983

 Total job time:  15.88s(wall), 85.77s(cpu)
        *  Thank you very much for using Q-Chem.  Have a nice day.  *
