 Q-Chem 5.3 (devel), Q-Chem, Inc., Pleasanton, CA (2020)
 Q-Chem 5.3.0 for Intel X86 EM64T Linux

User input:
--------------------------------------------------------------
$rem
   JOBTYPE  sp
   EXCHANGE   omegaB97X-D
   BASIS   6-311+G(2df,2pd)
   UNRESTRICTED   True
   max_scf_cycles   250
   geom_opt_max_cycles   1500
   basis2 6-31G*
   scf_algorithm rca_diis
   SYM_IGNORE  TRUE
   print_input   true
   geom_opt_dmax   80
   pop_mulliken false
   XC_GRID 000075000302
$end

$molecule
0 3
N       0.6925818594     1.1792593356     2.4918018290
O       0.3462951572     2.1200855342     1.8419637217
O       1.6129397463     0.9766916597     3.2171309433
N       0.0162891347     -1.0960840359     3.1359346100
O       -0.4559938114     -1.3505280904     4.1686952203
O       -0.2671209561     0.2655647068     2.2447735658
$end
--------------------------------------------------------------

             Standard Nuclear Orientation (Angstroms)
    I     Atom           X                Y                Z
 ----------------------------------------------------------------
    1      N       0.6925818594     1.1792593356     2.4918018290
    2      O       0.3462951572     2.1200855342     1.8419637217
    3      O       1.6129397463     0.9766916597     3.2171309433
    4      N       0.0162891347    -1.0960840359     3.1359346100
    5      O      -0.4559938114    -1.3505280904     4.1686952203
    6      O      -0.2671209561     0.2655647068     2.2447735658
 ----------------------------------------------------------------

    8    -409.9206101481      6.87E-05 Convergence criterion met
   10    -410.0758800445      6.95E-06 Convergence criterion met
 Total energy in the final basis set = -410.07588004

                    Orbital Energies (a.u.)
 --------------------------------------------------------------

 Alpha MOs
 -- Occupied --
-19.4173 -19.3975 -19.3488 -19.3462 -14.7772 -14.6159  -1.4590  -1.3689
 -1.2669  -1.2203  -0.8778  -0.7773  -0.7283  -0.7226  -0.6917  -0.6541
 -0.6325  -0.6307  -0.5082  -0.5021  -0.4645  -0.4621  -0.4285  -0.3377

 Beta MOs
 -- Occupied --
-19.4038 -19.3805 -19.3492 -19.3427 -14.7771 -14.5976  -1.4517  -1.3322
 -1.2623  -1.1913  -0.8330  -0.7456  -0.7254  -0.7049  -0.6756  -0.6067
 -0.5840  -0.5580  -0.4861  -0.4743  -0.4603  -0.4445

                    Cartesian Multipole Moments
 -----------------------------------------------------------------
    Charge (ESU x 10^10)
                -0.0000
    Dipole Moment (Debye)
         X      -0.2914      Y      -0.8148      Z       0.0540
       Tot       0.8670
    Quadrupole Moments (Debye-Ang)
        XX     -32.9954     XY      -1.0692     YY     -33.7539
        XZ      -2.0299     YZ      -0.7574     ZZ     -32.3322

 Total job time:  15.85s(wall), 84.63s(cpu)
        *  Thank you very much for using Q-Chem.  Have a nice day.  *
