 Q-Chem 5.3 (devel), Q-Chem, Inc., Pleasanton, CA (2020)
 Q-Chem 5.3.0 for Intel X86 EM64T Linux

User input:
--------------------------------------------------------------
$rem
   JOBTYPE  sp
   EXCHANGE   omegaB97X-D
   BASIS   6-311+G(2df,2pd)
   UNRESTRICTED   True
   max_scf_cycles   250
   geom_opt_max_cycles   1500
   basis2 6-31G*
   scf_algorithm rca_diis
   SYM_IGNORE  TRUE
   print_input   true
   geom_opt_dmax   80
   pop_mulliken false
   XC_GRID 000075000302
$end

$molecule
0 3
N       0.6907972007     1.2260472273     2.4685326188
O       0.4099593706     2.1932721343     1.8383388380
O       1.5889231873     0.9903588114     3.2007196192
N       0.0072829277     -1.1259720294     3.1515611673
O       -0.4557518642     -1.3866472278     4.1928373540
O       -0.2962196920     0.1979301942     2.2483102927
$end
--------------------------------------------------------------

             Standard Nuclear Orientation (Angstroms)
    I     Atom           X                Y                Z
 ----------------------------------------------------------------
    1      N       0.6907972007     1.2260472273     2.4685326188
    2      O       0.4099593706     2.1932721343     1.8383388380
    3      O       1.5889231873     0.9903588114     3.2007196192
    4      N       0.0072829277    -1.1259720294     3.1515611673
    5      O      -0.4557518642    -1.3866472278     4.1928373540
    6      O      -0.2962196920     0.1979301942     2.2483102927
 ----------------------------------------------------------------

    7    -409.9254124138      8.78E-05 Convergence criterion met
    9    -410.0807456378      8.85E-06 Convergence criterion met
 Total energy in the final basis set = -410.08074564

                    Orbital Energies (a.u.)
 --------------------------------------------------------------

 Alpha MOs
 -- Occupied --
-19.4103 -19.3987 -19.3513 -19.3488 -14.7726 -14.6232  -1.4427  -1.3674
 -1.2602  -1.2043  -0.8753  -0.7759  -0.7199  -0.7168  -0.6847  -0.6564
 -0.6340  -0.6329  -0.4984  -0.4961  -0.4654  -0.4593  -0.4351  -0.3410

 Beta MOs
 -- Occupied --
-19.3972 -19.3811 -19.3495 -19.3492 -14.7723 -14.6042  -1.4386  -1.3291
 -1.2581  -1.1702  -0.8309  -0.7440  -0.7146  -0.7042  -0.6734  -0.6056
 -0.5833  -0.5581  -0.4780  -0.4708  -0.4639  -0.4486

                    Cartesian Multipole Moments
 -----------------------------------------------------------------
    Charge (ESU x 10^10)
                -0.0000
    Dipole Moment (Debye)
         X      -0.2205      Y      -0.7308      Z       0.0818
       Tot       0.7677
    Quadrupole Moments (Debye-Ang)
        XX     -32.9678     XY      -1.0007     YY     -33.4159
        XZ      -1.8307     YZ      -0.6284     ZZ     -32.2282

 Total job time:  14.56s(wall), 77.01s(cpu)
        *  Thank you very much for using Q-Chem.  Have a nice day.  *
