 Q-Chem 5.3 (devel), Q-Chem, Inc., Pleasanton, CA (2020)
 Q-Chem 5.3.0 for Intel X86 EM64T Linux

User input:
--------------------------------------------------------------
$rem
   JOBTYPE  sp
   EXCHANGE   omegaB97X-D
   BASIS   6-311+G(2df,2pd)
   UNRESTRICTED   True
   max_scf_cycles   250
   geom_opt_max_cycles   1500
   basis2 6-31G*
   scf_algorithm rca_diis
   SYM_IGNORE  TRUE
   print_input   true
   geom_opt_dmax   80
   pop_mulliken false
   XC_GRID 000075000302
$end

$molecule
0 3
N       0.7104006181     1.1074288128     2.5493315222
O       0.4265984375     2.0594781463     1.9663437222
O       1.6778862055     1.0979041819     3.2410923537
N       0.0620036197     -1.1184357316     3.1102745432
O       -0.4013639682     -1.2121840596     4.1637134141
O       -0.5305337826     0.1607977601     2.0695443345
$end
--------------------------------------------------------------

             Standard Nuclear Orientation (Angstroms)
    I     Atom           X                Y                Z
 ----------------------------------------------------------------
    1      N       0.7104006181     1.1074288128     2.5493315222
    2      O       0.4265984375     2.0594781463     1.9663437222
    3      O       1.6778862055     1.0979041819     3.2410923537
    4      N       0.0620036197    -1.1184357316     3.1102745432
    5      O      -0.4013639682    -1.2121840596     4.1637134141
    6      O      -0.5305337826     0.1607977601     2.0695443345
 ----------------------------------------------------------------

    9    -409.8676555851      5.39E-05 Convergence criterion met
   12    -410.0235414411      8.21E-06 Convergence criterion met
 Total energy in the final basis set = -410.02354144

                    Orbital Energies (a.u.)
 --------------------------------------------------------------

 Alpha MOs
 -- Occupied --
-19.4070 -19.3952 -19.3624 -19.3463 -14.7603 -14.6011  -1.4528  -1.3704
 -1.2545  -1.1577  -0.8226  -0.7941  -0.7147  -0.7125  -0.6814  -0.6550
 -0.6419  -0.6230  -0.4910  -0.4881  -0.4715  -0.4635  -0.4336  -0.3241

 Beta MOs
 -- Occupied --
-19.3884 -19.3798 -19.3635 -19.3444 -14.7603 -14.5848  -1.4512  -1.3372
 -1.2530  -1.1055  -0.7891  -0.7585  -0.7118  -0.7027  -0.6732  -0.6067
 -0.5801  -0.5633  -0.4746  -0.4697  -0.4545  -0.4359

                    Cartesian Multipole Moments
 -----------------------------------------------------------------
    Charge (ESU x 10^10)
                 0.0000
    Dipole Moment (Debye)
         X      -0.0099      Y      -0.5042      Z       0.1358
       Tot       0.5223
    Quadrupole Moments (Debye-Ang)
        XX     -32.4441     XY      -0.6775     YY     -33.0241
        XZ      -1.0152     YZ      -0.4740     ZZ     -31.9421

 Total job time:  17.36s(wall), 94.13s(cpu)
        *  Thank you very much for using Q-Chem.  Have a nice day.  *
