 Q-Chem 5.3 (devel), Q-Chem, Inc., Pleasanton, CA (2020)
 Q-Chem 5.3.0 for Intel X86 EM64T Linux

User input:
--------------------------------------------------------------
$rem
   JOBTYPE  sp
   EXCHANGE   omegaB97X-D
   BASIS   6-311+G(2df,2pd)
   UNRESTRICTED   True
   max_scf_cycles   250
   geom_opt_max_cycles   1500
   basis2 6-31G*
   scf_algorithm rca_diis
   SYM_IGNORE  TRUE
   print_input   true
   geom_opt_dmax   80
   pop_mulliken false
   XC_GRID 000075000302
$end

$molecule
0 3
N       0.7033202499     1.2968041278     2.4280992272
O       0.5920431751     2.2313165113     1.7251434380
O       1.4900106725     1.0252246368     3.2603845480
N       -0.1837496486     -0.9754184251     3.2553655641
O       -0.2730039954     -1.6616728547     4.2020925743
O       -0.3836293235     0.1787351139     2.2292145385
$end
--------------------------------------------------------------

             Standard Nuclear Orientation (Angstroms)
    I     Atom           X                Y                Z
 ----------------------------------------------------------------
    1      N       0.7033202499     1.2968041278     2.4280992272
    2      O       0.5920431751     2.2313165113     1.7251434380
    3      O       1.4900106725     1.0252246368     3.2603845480
    4      N      -0.1837496486    -0.9754184251     3.2553655641
    5      O      -0.2730039954    -1.6616728547     4.2020925743
    6      O      -0.3836293235     0.1787351139     2.2292145385
 ----------------------------------------------------------------

    9    -409.8851204806      5.43E-05 Convergence criterion met
   10    -410.0409989990      7.64E-06 Convergence criterion met
 Total energy in the final basis set = -410.04099900

                    Orbital Energies (a.u.)
 --------------------------------------------------------------

 Alpha MOs
 -- Occupied --
-19.3978 -19.3857 -19.3602 -19.3512 -14.7621 -14.6307  -1.4369  -1.3612
 -1.2651  -1.1796  -0.8694  -0.7707  -0.7192  -0.7094  -0.6797  -0.6604
 -0.6352  -0.6315  -0.4862  -0.4839  -0.4694  -0.4529  -0.3742  -0.3405

 Beta MOs
 -- Occupied --
-19.3828 -19.3717 -19.3586 -19.3514 -14.7604 -14.6085  -1.4334  -1.3226
 -1.2627  -1.1396  -0.8231  -0.7442  -0.7067  -0.7032  -0.6730  -0.6119
 -0.5892  -0.5601  -0.4695  -0.4654  -0.4636  -0.4484

                    Cartesian Multipole Moments
 -----------------------------------------------------------------
    Charge (ESU x 10^10)
                -0.0000
    Dipole Moment (Debye)
         X      -0.1917      Y      -0.3656      Z       0.2283
       Tot       0.4717
    Quadrupole Moments (Debye-Ang)
        XX     -32.6365     XY      -0.7983     YY     -33.0311
        XZ      -2.0472     YZ       0.5092     ZZ     -31.5770

 Total job time:  14.66s(wall), 78.14s(cpu)
        *  Thank you very much for using Q-Chem.  Have a nice day.  *
