 Q-Chem 5.3 (devel), Q-Chem, Inc., Pleasanton, CA (2020)
 Q-Chem 5.3.0 for Intel X86 EM64T Linux

User input:
--------------------------------------------------------------
$rem
   JOBTYPE  sp
   EXCHANGE   omegaB97X-D
   BASIS   6-311+G(2df,2pd)
   UNRESTRICTED   True
   max_scf_cycles   250
   geom_opt_max_cycles   1500
   basis2 6-31G*
   scf_algorithm rca_diis
   SYM_IGNORE  TRUE
   print_input   true
   geom_opt_dmax   80
   pop_mulliken false
   XC_GRID 000075000302
$end

$molecule
0 3
N       0.6958603903     1.1341335534     2.5123906298
O       0.2960257331     2.0287271036     1.8174039415
O       1.6256012669     0.9646176599     3.2484818047
N       -0.0116054819     -1.0138415206     3.1369810579
O       -0.4255287827     -1.3844870505     4.1516827806
O       -0.2353619956     0.3658393641     2.2333596755
$end
--------------------------------------------------------------

             Standard Nuclear Orientation (Angstroms)
    I     Atom           X                Y                Z
 ----------------------------------------------------------------
    1      N       0.6958603903     1.1341335534     2.5123906298
    2      O       0.2960257331     2.0287271036     1.8174039415
    3      O       1.6256012669     0.9646176599     3.2484818047
    4      N      -0.0116054819    -1.0138415206     3.1369810579
    5      O      -0.4255287827    -1.3844870505     4.1516827806
    6      O      -0.2353619956     0.3658393641     2.2333596755
 ----------------------------------------------------------------

    8    -409.8825915741      7.27E-05 Convergence criterion met
    9    -410.0390552786      8.39E-06 Convergence criterion met
 Total energy in the final basis set = -410.03905528

                    Orbital Energies (a.u.)
 --------------------------------------------------------------

 Alpha MOs
 -- Occupied --
-19.4175 -19.3855 -19.3531 -19.3486 -14.7850 -14.5960  -1.5065  -1.3608
 -1.2891  -1.2249  -0.8745  -0.7783  -0.7541  -0.7273  -0.7026  -0.6480
 -0.6284  -0.6198  -0.5215  -0.5047  -0.4684  -0.4644  -0.4030  -0.3241

 Beta MOs
 -- Occupied --
-19.4041 -19.3702 -19.3536 -19.3417 -14.7851 -14.5784  -1.4937  -1.3269
 -1.2835  -1.2004  -0.8321  -0.7513  -0.7496  -0.7043  -0.6830  -0.6096
 -0.5793  -0.5526  -0.4943  -0.4788  -0.4586  -0.4395

                    Cartesian Multipole Moments
 -----------------------------------------------------------------
    Charge (ESU x 10^10)
                -0.0000
    Dipole Moment (Debye)
         X      -0.2916      Y      -0.4336      Z      -0.1322
       Tot       0.5390
    Quadrupole Moments (Debye-Ang)
        XX     -32.7728     XY      -1.0962     YY     -33.9237
        XZ      -2.0082     YZ       0.5132     ZZ     -33.3814

 Total job time:  15.13s(wall), 80.61s(cpu)
        *  Thank you very much for using Q-Chem.  Have a nice day.  *
