 Q-Chem 5.3 (devel), Q-Chem, Inc., Pleasanton, CA (2020)
 Q-Chem 5.3.0 for Intel X86 EM64T Linux

User input:
--------------------------------------------------------------
$rem
   JOBTYPE  sp
   EXCHANGE   omegaB97X-D
   BASIS   6-311+G(2df,2pd)
   UNRESTRICTED   True
   max_scf_cycles   250
   geom_opt_max_cycles   1500
   basis2 6-31G*
   scf_algorithm rca_diis
   SYM_IGNORE  TRUE
   print_input   true
   geom_opt_dmax   80
   pop_mulliken false
   XC_GRID 000075000302
$end

$molecule
0 3
N       0.6887558973     1.2036840317     2.4793843806
O       0.3681328060     2.1854494146     1.8721444023
O       1.6082819036     0.9809456582     3.1857195234
N       0.0621574130     -1.1488366441     3.1000929460
O       -0.5078402801     -1.3222919912     4.2210808404
O       -0.2744966096     0.1960386407     2.2418777972
$end
--------------------------------------------------------------

             Standard Nuclear Orientation (Angstroms)
    I     Atom           X                Y                Z
 ----------------------------------------------------------------
    1      N       0.6887558973     1.2036840317     2.4793843806
    2      O       0.3681328060     2.1854494146     1.8721444023
    3      O       1.6082819036     0.9809456582     3.1857195234
    4      N       0.0621574130    -1.1488366441     3.1000929460
    5      O      -0.5078402801    -1.3222919912     4.2210808404
    6      O      -0.2744966096     0.1960386407     2.2418777972
 ----------------------------------------------------------------

    8    -409.9170055090      8.74E-05 Convergence criterion met
   10    -410.0697421707      9.88E-06 Convergence criterion met
 Total energy in the final basis set = -410.06974217

                    Orbital Energies (a.u.)
 --------------------------------------------------------------

 Alpha MOs
 -- Occupied --
-19.4217 -19.4085 -19.3524 -19.3507 -14.7775 -14.6347  -1.4470  -1.3089
 -1.2613  -1.2103  -0.8918  -0.7822  -0.7211  -0.7201  -0.6855  -0.6425
 -0.6134  -0.6090  -0.5051  -0.4993  -0.4684  -0.4656  -0.4435  -0.3725

 Beta MOs
 -- Occupied --
-19.4111 -19.3876 -19.3528 -19.3487 -14.7772 -14.6169  -1.4430  -1.2644
 -1.2587  -1.1812  -0.8448  -0.7517  -0.7193  -0.7067  -0.6755  -0.5951
 -0.5599  -0.5253  -0.4796  -0.4759  -0.4633  -0.4481

                    Cartesian Multipole Moments
 -----------------------------------------------------------------
    Charge (ESU x 10^10)
                -0.0000
    Dipole Moment (Debye)
         X      -0.1809      Y      -0.6615      Z      -0.0227
       Tot       0.6862
    Quadrupole Moments (Debye-Ang)
        XX     -33.1137     XY      -0.9101     YY     -33.9941
        XZ      -1.7225     YZ      -0.3366     ZZ     -32.7892

 Total job time:  15.48s(wall), 82.58s(cpu)
        *  Thank you very much for using Q-Chem.  Have a nice day.  *
