 Q-Chem 5.3 (devel), Q-Chem, Inc., Pleasanton, CA (2020)
 Q-Chem 5.3.0 for Intel X86 EM64T Linux

User input:
--------------------------------------------------------------
$rem
   JOBTYPE  sp
   EXCHANGE   omegaB97X-D
   BASIS   6-311+G(2df,2pd)
   UNRESTRICTED   True
   max_scf_cycles   250
   geom_opt_max_cycles   1500
   basis2 6-31G*
   scf_algorithm rca_diis
   SYM_IGNORE  TRUE
   print_input   true
   geom_opt_dmax   80
   pop_mulliken false
   XC_GRID 000075000302
$end

$molecule
0 3
N       0.6904463476     1.2587583788     2.4605785690
O       0.4667099433     2.2146188661     1.7991672207
O       1.5667785603     1.0024884956     3.2089863582
N       -0.0491266772     -1.0749651639     3.1853274071
O       -0.4134893684     -1.4965279035     4.2140267694
O       -0.3163276754     0.1906164369     2.2322135656
$end
--------------------------------------------------------------

             Standard Nuclear Orientation (Angstroms)
    I     Atom           X                Y                Z
 ----------------------------------------------------------------
    1      N       0.6904463476     1.2587583788     2.4605785690
    2      O       0.4667099433     2.2146188661     1.7991672207
    3      O       1.5667785603     1.0024884956     3.2089863582
    4      N      -0.0491266772    -1.0749651639     3.1853274071
    5      O      -0.4134893684    -1.4965279035     4.2140267694
    6      O      -0.3163276754     0.1906164369     2.2322135656
 ----------------------------------------------------------------

    8    -409.9185639507      7.86E-05 Convergence criterion met
    9    -410.0739908079      6.59E-06 Convergence criterion met
 Total energy in the final basis set = -410.07399081

                    Orbital Energies (a.u.)
 --------------------------------------------------------------

 Alpha MOs
 -- Occupied --
-19.4043 -19.3966 -19.3545 -19.3503 -14.7703 -14.6267  -1.4398  -1.3643
 -1.2617  -1.1960  -0.8751  -0.7736  -0.7197  -0.7141  -0.6827  -0.6574
 -0.6348  -0.6325  -0.4948  -0.4910  -0.4671  -0.4559  -0.4227  -0.3409

 Beta MOs
 -- Occupied --
-19.3912 -19.3797 -19.3531 -19.3507 -14.7696 -14.6063  -1.4364  -1.3257
 -1.2600  -1.1606  -0.8300  -0.7436  -0.7118  -0.7036  -0.6736  -0.6077
 -0.5840  -0.5578  -0.4753  -0.4691  -0.4663  -0.4503

                    Cartesian Multipole Moments
 -----------------------------------------------------------------
    Charge (ESU x 10^10)
                -0.0000
    Dipole Moment (Debye)
         X      -0.2086      Y      -0.5576      Z       0.1094
       Tot       0.6053
    Quadrupole Moments (Debye-Ang)
        XX     -32.8535     XY      -0.9665     YY     -33.3335
        XZ      -1.8351     YZ      -0.0103     ZZ     -32.1999

 Total job time:  13.81s(wall), 72.66s(cpu)
        *  Thank you very much for using Q-Chem.  Have a nice day.  *
