 Q-Chem 5.3 (devel), Q-Chem, Inc., Pleasanton, CA (2020)
 Q-Chem 5.3.0 for Intel X86 EM64T Linux

User input:
--------------------------------------------------------------
$rem
   JOBTYPE  sp
   EXCHANGE   omegaB97X-D
   BASIS   6-311+G(2df,2pd)
   UNRESTRICTED   True
   max_scf_cycles   250
   geom_opt_max_cycles   1500
   basis2 6-31G*
   scf_algorithm rca_diis
   SYM_IGNORE  TRUE
   print_input   true
   geom_opt_dmax   80
   pop_mulliken false
   XC_GRID 000075000302
$end

$molecule
0 3
N       0.6862917167     1.2198540788     2.4753992575
O       0.3960569484     2.1707687994     1.8423067300
O       1.5950257103     0.9863568309     3.2031921351
N       -0.0030542840     -1.1545916824     3.1975441785
O       -0.4323538498     -1.3275539030     4.1028489767
O       -0.2969751115     0.2001549862     2.2790086122
$end
--------------------------------------------------------------

             Standard Nuclear Orientation (Angstroms)
    I     Atom           X                Y                Z
 ----------------------------------------------------------------
    1      N       0.6862917167     1.2198540788     2.4753992575
    2      O       0.3960569484     2.1707687994     1.8423067300
    3      O       1.5950257103     0.9863568309     3.2031921351
    4      N      -0.0030542840    -1.1545916824     3.1975441785
    5      O      -0.4323538498    -1.3275539030     4.1028489767
    6      O      -0.2969751115     0.2001549862     2.2790086122
 ----------------------------------------------------------------

    8    -409.8596658100      7.46E-05 Convergence criterion met
    9    -410.0276455659      6.83E-06 Convergence criterion met
 Total energy in the final basis set = -410.02764557

                    Orbital Energies (a.u.)
 --------------------------------------------------------------

 Alpha MOs
 -- Occupied --
-19.3949 -19.3933 -19.3451 -19.3383 -14.7636 -14.5908  -1.4944  -1.4374
 -1.2546  -1.1969  -0.8506  -0.7713  -0.7276  -0.7221  -0.7106  -0.6844
 -0.6744  -0.6461  -0.4962  -0.4887  -0.4591  -0.4520  -0.4289  -0.2783

 Beta MOs
 -- Occupied --
-19.3805 -19.3768 -19.3428 -19.3388 -14.7631 -14.5733  -1.4654  -1.4322
 -1.2522  -1.1556  -0.8109  -0.7365  -0.7109  -0.7058  -0.6699  -0.6568
 -0.6370  -0.5946  -0.4693  -0.4617  -0.4580  -0.4419

                    Cartesian Multipole Moments
 -----------------------------------------------------------------
    Charge (ESU x 10^10)
                -0.0000
    Dipole Moment (Debye)
         X      -0.4492      Y      -1.2041      Z       0.5146
       Tot       1.3844
    Quadrupole Moments (Debye-Ang)
        XX     -32.9894     XY      -1.0513     YY     -32.5317
        XZ      -2.5739     YZ      -2.6349     ZZ     -29.2634

 Total job time:  14.00s(wall), 73.92s(cpu)
        *  Thank you very much for using Q-Chem.  Have a nice day.  *
