 Q-Chem 5.3 (devel), Q-Chem, Inc., Pleasanton, CA (2020)
 Q-Chem 5.3.0 for Intel X86 EM64T Linux

User input:
--------------------------------------------------------------
$rem
   JOBTYPE  sp
   EXCHANGE   omegaB97X-D
   BASIS   6-311+G(2df,2pd)
   UNRESTRICTED   True
   max_scf_cycles   250
   geom_opt_max_cycles   1500
   basis2 6-31G*
   scf_algorithm rca_diis
   SYM_IGNORE  TRUE
   print_input   true
   geom_opt_dmax   80
   pop_mulliken false
   XC_GRID 000075000302
$end

$molecule
0 3
N       0.6497552240     1.1991297746     2.5008041842
O       0.3879091185     2.1773674405     1.8772189533
O       1.6209843226     1.0017059606     3.1464954649
N       0.0467525963     -1.1424506847     3.1553778110
O       -0.5095835390     -1.3310995174     4.1659461435
O       -0.2508265924     0.1903361363     2.2544573330
$end
--------------------------------------------------------------

             Standard Nuclear Orientation (Angstroms)
    I     Atom           X                Y                Z
 ----------------------------------------------------------------
    1      N       0.6497552240     1.1991297746     2.5008041842
    2      O       0.3879091185     2.1773674405     1.8772189533
    3      O       1.6209843226     1.0017059606     3.1464954649
    4      N       0.0467525963    -1.1424506847     3.1553778110
    5      O      -0.5095835390    -1.3310995174     4.1659461435
    6      O      -0.2508265924     0.1903361363     2.2544573330
 ----------------------------------------------------------------

    8    -409.9226284368      7.92E-05 Convergence criterion met
   11    -410.0783095622      7.16E-06 Convergence criterion met
 Total energy in the final basis set = -410.07830956

                    Orbital Energies (a.u.)
 --------------------------------------------------------------

 Alpha MOs
 -- Occupied --
-19.4222 -19.4049 -19.3421 -19.3378 -14.7721 -14.6260  -1.4525  -1.3740
 -1.2505  -1.2281  -0.8869  -0.7790  -0.7246  -0.7160  -0.6895  -0.6558
 -0.6370  -0.6343  -0.5064  -0.5029  -0.4623  -0.4570  -0.4340  -0.3458

 Beta MOs
 -- Occupied --
-19.4092 -19.3869 -19.3396 -19.3381 -14.7720 -14.6076  -1.4468  -1.3358
 -1.2474  -1.1975  -0.8422  -0.7435  -0.7207  -0.7036  -0.6711  -0.6057
 -0.5881  -0.5620  -0.4863  -0.4748  -0.4561  -0.4360

                    Cartesian Multipole Moments
 -----------------------------------------------------------------
    Charge (ESU x 10^10)
                -0.0000
    Dipole Moment (Debye)
         X      -0.5087      Y      -1.0750      Z       0.1637
       Tot       1.2005
    Quadrupole Moments (Debye-Ang)
        XX     -33.4347     XY      -1.2931     YY     -33.8423
        XZ      -2.5614     YZ      -1.5773     ZZ     -31.5436

 Total job time:  16.48s(wall), 88.56s(cpu)
        *  Thank you very much for using Q-Chem.  Have a nice day.  *
