 Q-Chem 5.3 (devel), Q-Chem, Inc., Pleasanton, CA (2020)
 Q-Chem 5.3.0 for Intel X86 EM64T Linux

User input:
--------------------------------------------------------------
$rem
   JOBTYPE  sp
   EXCHANGE   omegaB97X-D
   BASIS   6-311+G(2df,2pd)
   UNRESTRICTED   True
   max_scf_cycles   250
   geom_opt_max_cycles   1500
   basis2 6-31G*
   scf_algorithm rca_diis
   SYM_IGNORE  TRUE
   print_input   true
   geom_opt_dmax   80
   pop_mulliken false
   XC_GRID 000075000302
$end

$molecule
0 3
N       0.7562437284     1.1486973727     2.5518864674
O       0.3594211029     2.2182480709     1.8289700891
O       1.5526864735     0.9906940489     3.1591919500
N       0.0333130138     -1.1450438499     3.1405997229
O       -0.4692372011     -1.3189773399     4.1676597372
O       -0.2874359873     0.2013708072     2.2519919235
$end
--------------------------------------------------------------

             Standard Nuclear Orientation (Angstroms)
    I     Atom           X                Y                Z
 ----------------------------------------------------------------
    1      N       0.7562437284     1.1486973727     2.5518864674
    2      O       0.3594211029     2.2182480709     1.8289700891
    3      O       1.5526864735     0.9906940489     3.1591919500
    4      N       0.0333130138    -1.1450438499     3.1405997229
    5      O      -0.4692372011    -1.3189773399     4.1676597372
    6      O      -0.2874359873     0.2013708072     2.2519919235
 ----------------------------------------------------------------

    8    -409.8376654834      7.80E-05 Convergence criterion met
   15    -410.0045879995      4.95E-06 Convergence criterion met
 Total energy in the final basis set = -410.00458800

                    Orbital Energies (a.u.)
 --------------------------------------------------------------

 Alpha MOs
 -- Occupied --
-19.4089 -19.4034 -19.3925 -19.3127 -14.7718 -14.6099  -1.5603  -1.3738
 -1.2486  -1.1540  -0.8631  -0.7860  -0.7743  -0.7573  -0.7131  -0.6575
 -0.6391  -0.6320  -0.5058  -0.4962  -0.4668  -0.4358  -0.4124  -0.3329

 Beta MOs
 -- Occupied --
-19.4094 -19.3906 -19.3750 -19.3090 -14.7716 -14.5928  -1.5599  -1.3370
 -1.2277  -1.1337  -0.8254  -0.7745  -0.7635  -0.7394  -0.6962  -0.6068
 -0.5840  -0.5620  -0.4889  -0.4812  -0.4286  -0.4131

                    Cartesian Multipole Moments
 -----------------------------------------------------------------
    Charge (ESU x 10^10)
                -0.0000
    Dipole Moment (Debye)
         X       1.0782      Y      -1.2092      Z       1.0953
       Tot       1.9556
    Quadrupole Moments (Debye-Ang)
        XX     -30.5886     XY       0.1378     YY     -35.9803
        XZ       2.7275     YZ      -0.1105     ZZ     -27.1617

 Total job time:  20.84s(wall), 114.73s(cpu)
        *  Thank you very much for using Q-Chem.  Have a nice day.  *
