 Q-Chem 5.3 (devel), Q-Chem, Inc., Pleasanton, CA (2020)
 Q-Chem 5.3.0 for Intel X86 EM64T Linux

User input:
--------------------------------------------------------------
$rem
   JOBTYPE  sp
   EXCHANGE   omegaB97X-D
   BASIS   6-311+G(2df,2pd)
   UNRESTRICTED   True
   max_scf_cycles   250
   geom_opt_max_cycles   1500
   basis2 6-31G*
   scf_algorithm rca_diis
   SYM_IGNORE  TRUE
   print_input   true
   geom_opt_dmax   80
   pop_mulliken false
   XC_GRID 000075000302
$end

$molecule
0 3
N       0.8256707840     1.2994903490     2.4869247350
O       0.2259550491     2.0913217175     1.8348262135
O       1.8696514767     1.3373752400     3.0334995225
N       -0.1547483901     -1.2827995607     3.1267743061
O       -0.7303532341     -1.5118580828     4.1333287446
O       -0.0911845555     0.1614594469     2.4849463684
$end
--------------------------------------------------------------

             Standard Nuclear Orientation (Angstroms)
    I     Atom           X                Y                Z
 ----------------------------------------------------------------
    1      N       0.8256707840     1.2994903490     2.4869247350
    2      O       0.2259550491     2.0913217175     1.8348262135
    3      O       1.8696514767     1.3373752400     3.0334995225
    4      N      -0.1547483901    -1.2827995607     3.1267743061
    5      O      -0.7303532341    -1.5118580828     4.1333287446
    6      O      -0.0911845555     0.1614594469     2.4849463684
 ----------------------------------------------------------------

    8    -409.9068795426      5.95E-05 Convergence criterion met
   10    -410.0627296299      6.45E-06 Convergence criterion met
 Total energy in the final basis set = -410.06272963

                    Orbital Energies (a.u.)
 --------------------------------------------------------------

 Alpha MOs
 -- Occupied --
-19.3953 -19.3889 -19.3632 -19.3618 -14.7766 -14.6179  -1.4474  -1.3525
 -1.2737  -1.1882  -0.8907  -0.7709  -0.7251  -0.7197  -0.6852  -0.6451
 -0.6245  -0.6054  -0.5172  -0.4895  -0.4725  -0.4638  -0.4271  -0.3340

 Beta MOs
 -- Occupied --
-19.3838 -19.3710 -19.3635 -19.3582 -14.7760 -14.5999  -1.4428  -1.3139
 -1.2693  -1.1564  -0.8513  -0.7463  -0.7175  -0.6978  -0.6787  -0.5802
 -0.5739  -0.5475  -0.4803  -0.4745  -0.4610  -0.4496

                    Cartesian Multipole Moments
 -----------------------------------------------------------------
    Charge (ESU x 10^10)
                -0.0000
    Dipole Moment (Debye)
         X       0.2089      Y      -0.2883      Z       0.0567
       Tot       0.3605
    Quadrupole Moments (Debye-Ang)
        XX     -33.2271     XY      -0.5296     YY     -32.8363
        XZ      -0.3486     YZ       0.6841     ZZ     -32.0194

 Total job time:  14.90s(wall), 79.76s(cpu)
        *  Thank you very much for using Q-Chem.  Have a nice day.  *
