 Q-Chem 5.3 (devel), Q-Chem, Inc., Pleasanton, CA (2020)
 Q-Chem 5.3.0 for Intel X86 EM64T Linux

User input:
--------------------------------------------------------------
$rem
   JOBTYPE  sp
   EXCHANGE   omegaB97X-D
   BASIS   6-311+G(2df,2pd)
   UNRESTRICTED   True
   max_scf_cycles   250
   geom_opt_max_cycles   1500
   basis2 6-31G*
   scf_algorithm rca_diis
   SYM_IGNORE  TRUE
   print_input   true
   geom_opt_dmax   80
   pop_mulliken false
   XC_GRID 000075000302
$end

$molecule
0 3
N       0.7270733733     1.2624824711     2.4813688380
O       0.3950194526     2.1188329774     1.8971243738
O       1.5479640775     0.9946587062     3.1493350184
N       0.0375458862     -1.1560575685     3.1388084785
O       -0.4813471320     -1.3278102406     4.1786837084
O       -0.2812645275     0.2028827643     2.2549794730
$end
--------------------------------------------------------------

             Standard Nuclear Orientation (Angstroms)
    I     Atom           X                Y                Z
 ----------------------------------------------------------------
    1      N       0.7270733733     1.2624824711     2.4813688380
    2      O       0.3950194526     2.1188329774     1.8971243738
    3      O       1.5479640775     0.9946587062     3.1493350184
    4      N       0.0375458862    -1.1560575685     3.1388084785
    5      O      -0.4813471320    -1.3278102406     4.1786837084
    6      O      -0.2812645275     0.2028827643     2.2549794730
 ----------------------------------------------------------------

    7    -409.8813810933      9.36E-05 Convergence criterion met
    9    -410.0460082146      5.74E-06 Convergence criterion met
 Total energy in the final basis set = -410.04600821

                    Orbital Energies (a.u.)
 --------------------------------------------------------------

 Alpha MOs
 -- Occupied --
-19.3825 -19.3733 -19.3560 -19.3518 -14.7727 -14.6034  -1.5257  -1.3517
 -1.3476  -1.1779  -0.8560  -0.7725  -0.7657  -0.7383  -0.6963  -0.6490
 -0.6256  -0.6164  -0.5033  -0.4938  -0.4750  -0.4651  -0.4279  -0.3256

 Beta MOs
 -- Occupied --
-19.3646 -19.3601 -19.3542 -19.3521 -14.7724 -14.5857  -1.5233  -1.3491
 -1.3099  -1.1419  -0.8151  -0.7714  -0.7407  -0.7180  -0.6931  -0.5948
 -0.5663  -0.5458  -0.4930  -0.4762  -0.4560  -0.4534

                    Cartesian Multipole Moments
 -----------------------------------------------------------------
    Charge (ESU x 10^10)
                 0.0000
    Dipole Moment (Debye)
         X       0.4540      Y       0.3198      Z      -0.0368
       Tot       0.5566
    Quadrupole Moments (Debye-Ang)
        XX     -32.1587     XY      -0.1833     YY     -31.7487
        XZ       0.0291     YZ       2.0411     ZZ     -32.6516

 Total job time:  13.72s(wall), 71.91s(cpu)
        *  Thank you very much for using Q-Chem.  Have a nice day.  *
