 Q-Chem 5.3 (devel), Q-Chem, Inc., Pleasanton, CA (2020)
 Q-Chem 5.3.0 for Intel X86 EM64T Linux

User input:
--------------------------------------------------------------
$rem
   JOBTYPE  sp
   EXCHANGE   omegaB97X-D
   BASIS   6-311+G(2df,2pd)
   UNRESTRICTED   True
   max_scf_cycles   250
   geom_opt_max_cycles   1500
   basis2 6-31G*
   scf_algorithm rca_diis
   SYM_IGNORE  TRUE
   print_input   true
   geom_opt_dmax   80
   pop_mulliken false
   XC_GRID 000075000302
$end

$molecule
0 3
N       0.6903297560     1.1925591613     2.4820504505
O       0.3488307313     2.1924195685     1.8929028473
O       1.6172824103     0.9771576031     3.1740646300
N       0.1039955388     -1.1455505391     3.0412919653
O       -0.5551072335     -1.3138634961     4.2890320077
O       -0.2603400729     0.1922668123     2.2209579892
$end
--------------------------------------------------------------

             Standard Nuclear Orientation (Angstroms)
    I     Atom           X                Y                Z
 ----------------------------------------------------------------
    1      N       0.6903297560     1.1925591613     2.4820504505
    2      O       0.3488307313     2.1924195685     1.8929028473
    3      O       1.6172824103     0.9771576031     3.1740646300
    4      N       0.1039955388    -1.1455505391     3.0412919653
    5      O      -0.5551072335    -1.3138634961     4.2890320077
    6      O      -0.2603400729     0.1922668123     2.2209579892
 ----------------------------------------------------------------

   10    -409.8812588075      8.46E-05 Convergence criterion met
   13    -410.0332472446      5.81E-06 Convergence criterion met
 Total energy in the final basis set = -410.03324724

                    Orbital Energies (a.u.)
 --------------------------------------------------------------

 Alpha MOs
 -- Occupied --
-19.4280 -19.4228 -19.3534 -19.3433 -14.7769 -14.6484  -1.4446  -1.2613
 -1.2532  -1.1998  -0.9169  -0.7838  -0.7196  -0.7170  -0.6813  -0.6304
 -0.5958  -0.5845  -0.5146  -0.4938  -0.4740  -0.4611  -0.4444  -0.4102

 Beta MOs
 -- Occupied --
-19.4170 -19.4027 -19.3535 -19.3421 -14.7765 -14.6311  -1.4419  -1.2554
 -1.2195  -1.1571  -0.8653  -0.7597  -0.7182  -0.7071  -0.6740  -0.5897
 -0.5424  -0.4969  -0.4775  -0.4735  -0.4582  -0.4421

                    Cartesian Multipole Moments
 -----------------------------------------------------------------
    Charge (ESU x 10^10)
                -0.0000
    Dipole Moment (Debye)
         X      -0.2757      Y      -0.8459      Z       0.1698
       Tot       0.9058
    Quadrupole Moments (Debye-Ang)
        XX     -33.2831     XY      -0.7682     YY     -34.7222
        XZ      -2.1815     YZ      -0.8965     ZZ     -31.5013

 Total job time:  18.79s(wall), 102.69s(cpu)
        *  Thank you very much for using Q-Chem.  Have a nice day.  *
