 Q-Chem 5.3 (devel), Q-Chem, Inc., Pleasanton, CA (2020)
 Q-Chem 5.3.0 for Intel X86 EM64T Linux

User input:
--------------------------------------------------------------
$rem
   JOBTYPE  sp
   EXCHANGE   omegaB97X-D
   BASIS   6-311+G(2df,2pd)
   UNRESTRICTED   True
   max_scf_cycles   250
   geom_opt_max_cycles   1500
   basis2 6-31G*
   scf_algorithm rca_diis
   SYM_IGNORE  TRUE
   print_input   true
   geom_opt_dmax   80
   pop_mulliken false
   XC_GRID 000075000302
$end

$molecule
0 3
N       0.8225378004     1.3615410296     2.5067783057
O       0.2765159950     2.1643589801     1.8077253608
O       1.6219796848     0.8727767796     3.2593521928
N       0.0503482012     -1.1779310454     3.1385830409
O       -0.4691026530     -1.2965686770     4.1820757346
O       -0.3572878983     0.1708120430     2.2057852551
$end
--------------------------------------------------------------

             Standard Nuclear Orientation (Angstroms)
    I     Atom           X                Y                Z
 ----------------------------------------------------------------
    1      N       0.8225378004     1.3615410296     2.5067783057
    2      O       0.2765159950     2.1643589801     1.8077253608
    3      O       1.6219796848     0.8727767796     3.2593521928
    4      N       0.0503482012    -1.1779310454     3.1385830409
    5      O      -0.4691026530    -1.2965686770     4.1820757346
    6      O      -0.3572878983     0.1708120430     2.2057852551
 ----------------------------------------------------------------

    9    -409.8773391104      6.00E-05 Convergence criterion met
   10    -410.0318473051      7.98E-06 Convergence criterion met
 Total energy in the final basis set = -410.03184731

                    Orbital Energies (a.u.)
 --------------------------------------------------------------

 Alpha MOs
 -- Occupied --
-19.4101 -19.4078 -19.3685 -19.3403 -14.7883 -14.5871  -1.4305  -1.3354
 -1.3061  -1.1013  -0.8202  -0.7900  -0.7209  -0.7163  -0.7052  -0.6337
 -0.6135  -0.6006  -0.5122  -0.5074  -0.4424  -0.4385  -0.4123  -0.3060

 Beta MOs
 -- Occupied --
-19.4106 -19.4061 -19.3512 -19.3261 -14.7869 -14.5713  -1.4276  -1.3049
 -1.2987  -1.0564  -0.8061  -0.7442  -0.7148  -0.7039  -0.6995  -0.5820
 -0.5527  -0.5368  -0.5074  -0.4951  -0.4240  -0.4158

                    Cartesian Multipole Moments
 -----------------------------------------------------------------
    Charge (ESU x 10^10)
                -0.0000
    Dipole Moment (Debye)
         X       1.3087      Y       1.3976      Z       0.0674
       Tot       1.9158
    Quadrupole Moments (Debye-Ang)
        XX     -31.3915     XY       0.8841     YY     -30.1250
        XZ       2.7867     YZ       4.4617     ZZ     -32.6017

 Total job time:  15.57s(wall), 83.67s(cpu)
        *  Thank you very much for using Q-Chem.  Have a nice day.  *
