 Q-Chem 5.3 (devel), Q-Chem, Inc., Pleasanton, CA (2020)
 Q-Chem 5.3.0 for Intel X86 EM64T Linux

User input:
--------------------------------------------------------------
$rem
   JOBTYPE  sp
   EXCHANGE   omegaB97X-D
   BASIS   6-311+G(2df,2pd)
   UNRESTRICTED   True
   max_scf_cycles   250
   geom_opt_max_cycles   1500
   basis2 6-31G*
   scf_algorithm rca_diis
   SYM_IGNORE  TRUE
   print_input   true
   geom_opt_dmax   80
   pop_mulliken false
   XC_GRID 000075000302
$end

$molecule
0 3
N       0.6632253511     1.1017664845     2.5440105136
O       0.2095329308     2.0682530244     1.9880470122
O       1.6644972732     0.9351213245     3.1628732547
N       0.1632271098     -1.2924024741     3.1087323611
O       -0.5294395141     -0.9079738420     3.9624354805
O       -0.2260520208     0.1902245926     2.3342012679
$end
--------------------------------------------------------------

             Standard Nuclear Orientation (Angstroms)
    I     Atom           X                Y                Z
 ----------------------------------------------------------------
    1      N       0.6632253511     1.1017664845     2.5440105136
    2      O       0.2095329308     2.0682530244     1.9880470122
    3      O       1.6644972732     0.9351213245     3.1628732547
    4      N       0.1632271098    -1.2924024741     3.1087323611
    5      O      -0.5294395141    -0.9079738420     3.9624354805
    6      O      -0.2260520208     0.1902245926     2.3342012679
 ----------------------------------------------------------------

    7    -409.8965480464      9.98E-05 Convergence criterion met
   11    -410.0520396700      5.83E-06 Convergence criterion met
 Total energy in the final basis set = -410.05203967

                    Orbital Energies (a.u.)
 --------------------------------------------------------------

 Alpha MOs
 -- Occupied --
-19.4186 -19.4008 -19.3547 -19.3491 -14.7827 -14.5979  -1.4798  -1.3840
 -1.2731  -1.2276  -0.8593  -0.7946  -0.7444  -0.7271  -0.7015  -0.6560
 -0.6288  -0.6109  -0.5282  -0.5010  -0.4699  -0.4684  -0.4397  -0.3313

 Beta MOs
 -- Occupied --
-19.4038 -19.3815 -19.3496 -19.3487 -14.7832 -14.5851  -1.4690  -1.3475
 -1.2662  -1.1979  -0.8189  -0.7600  -0.7344  -0.7145  -0.6824  -0.6014
 -0.5786  -0.5579  -0.4910  -0.4754  -0.4619  -0.4435

                    Cartesian Multipole Moments
 -----------------------------------------------------------------
    Charge (ESU x 10^10)
                 0.0000
    Dipole Moment (Debye)
         X      -0.3268      Y      -0.6792      Z       0.0819
       Tot       0.7582
    Quadrupole Moments (Debye-Ang)
        XX     -33.5834     XY      -0.3963     YY     -33.5020
        XZ      -1.9902     YZ      -1.4604     ZZ     -31.1467

 Total job time:  17.28s(wall), 93.00s(cpu)
        *  Thank you very much for using Q-Chem.  Have a nice day.  *
