 Q-Chem 5.3 (devel), Q-Chem, Inc., Pleasanton, CA (2020)
 Q-Chem 5.3.0 for Intel X86 EM64T Linux

User input:
--------------------------------------------------------------
$rem
   JOBTYPE  sp
   EXCHANGE   omegaB97X-D
   BASIS   6-311+G(2df,2pd)
   UNRESTRICTED   True
   max_scf_cycles   250
   geom_opt_max_cycles   1500
   basis2 6-31G*
   scf_algorithm rca_diis
   SYM_IGNORE  TRUE
   print_input   true
   geom_opt_dmax   80
   pop_mulliken false
   XC_GRID 000075000302
$end

$molecule
0 3
N       0.6380387498     1.1836887147     2.4908584848
O       0.4132533303     2.1890323283     1.8935205839
O       1.5267923707     0.8737819499     3.2103446024
N       0.1036050133     -1.0927626533     3.1478872042
O       -0.4213146704     -1.2514823278     4.1754032405
O       -0.3153836637     0.1927310981     2.1822857741
$end
--------------------------------------------------------------

             Standard Nuclear Orientation (Angstroms)
    I     Atom           X                Y                Z
 ----------------------------------------------------------------
    1      N       0.6380387498     1.1836887147     2.4908584848
    2      O       0.4132533303     2.1890323283     1.8935205839
    3      O       1.5267923707     0.8737819499     3.2103446024
    4      N       0.1036050133    -1.0927626533     3.1478872042
    5      O      -0.4213146704    -1.2514823278     4.1754032405
    6      O      -0.3153836637     0.1927310981     2.1822857741
 ----------------------------------------------------------------

    7    -409.9230438327      8.99E-05 Convergence criterion met
   10    -410.0782689403      5.75E-06 Convergence criterion met
 Total energy in the final basis set = -410.07826894

                    Orbital Energies (a.u.)
 --------------------------------------------------------------

 Alpha MOs
 -- Occupied --
-19.4149 -19.4013 -19.3474 -19.3433 -14.7719 -14.6193  -1.4455  -1.3725
 -1.2569  -1.2124  -0.8681  -0.7788  -0.7206  -0.7181  -0.6893  -0.6571
 -0.6372  -0.6332  -0.4998  -0.4971  -0.4623  -0.4600  -0.4418  -0.3379

 Beta MOs
 -- Occupied --
-19.4010 -19.3839 -19.3455 -19.3435 -14.7718 -14.6010  -1.4403  -1.3352
 -1.2545  -1.1783  -0.8227  -0.7449  -0.7166  -0.7059  -0.6724  -0.6103
 -0.5850  -0.5612  -0.4797  -0.4703  -0.4611  -0.4430

                    Cartesian Multipole Moments
 -----------------------------------------------------------------
    Charge (ESU x 10^10)
                -0.0000
    Dipole Moment (Debye)
         X      -0.3245      Y      -0.8784      Z       0.1068
       Tot       0.9425
    Quadrupole Moments (Debye-Ang)
        XX     -32.9599     XY      -1.1699     YY     -33.6103
        XZ      -2.0209     YZ      -1.2367     ZZ     -31.9641

 Total job time:  15.83s(wall), 84.38s(cpu)
        *  Thank you very much for using Q-Chem.  Have a nice day.  *
