 Q-Chem 5.3 (devel), Q-Chem, Inc., Pleasanton, CA (2020)
 Q-Chem 5.3.0 for Intel X86 EM64T Linux

User input:
--------------------------------------------------------------
$rem
   JOBTYPE  sp
   EXCHANGE   omegaB97X-D
   BASIS   6-311+G(2df,2pd)
   UNRESTRICTED   True
   max_scf_cycles   250
   geom_opt_max_cycles   1500
   basis2 6-31G*
   scf_algorithm rca_diis
   SYM_IGNORE  TRUE
   print_input   true
   geom_opt_dmax   80
   pop_mulliken false
   XC_GRID 000075000302
$end

$molecule
0 3
N       0.6237262269     1.1603542711     2.4802244760
O       0.4371615903     2.1896756968     1.9104632832
O       1.4678598081     0.8199281836     3.2393383102
N       0.1311576579     -1.0624578320     3.1404133522
O       -0.3723820825     -1.2100459296     4.1778541706
O       -0.3425320706     0.1975347201     2.1520062977
$end
--------------------------------------------------------------

             Standard Nuclear Orientation (Angstroms)
    I     Atom           X                Y                Z
 ----------------------------------------------------------------
    1      N       0.6237262269     1.1603542711     2.4802244760
    2      O       0.4371615903     2.1896756968     1.9104632832
    3      O       1.4678598081     0.8199281836     3.2393383102
    4      N       0.1311576579    -1.0624578320     3.1404133522
    5      O      -0.3723820825    -1.2100459296     4.1778541706
    6      O      -0.3425320706     0.1975347201     2.1520062977
 ----------------------------------------------------------------

    7    -409.9188214582      8.80E-05 Convergence criterion met
   10    -410.0741084794      5.83E-06 Convergence criterion met
 Total energy in the final basis set = -410.07410848

                    Orbital Energies (a.u.)
 --------------------------------------------------------------

 Alpha MOs
 -- Occupied --
-19.4158 -19.4012 -19.3461 -19.3409 -14.7712 -14.6183  -1.4464  -1.3736
 -1.2560  -1.2145  -0.8649  -0.7794  -0.7206  -0.7196  -0.6913  -0.6576
 -0.6374  -0.6329  -0.5001  -0.4961  -0.4615  -0.4588  -0.4437  -0.3345

 Beta MOs
 -- Occupied --
-19.4016 -19.3840 -19.3444 -19.3410 -14.7711 -14.5997  -1.4409  -1.3368
 -1.2535  -1.1802  -0.8188  -0.7451  -0.7170  -0.7071  -0.6723  -0.6131
 -0.5853  -0.5622  -0.4801  -0.4703  -0.4603  -0.4398

                    Cartesian Multipole Moments
 -----------------------------------------------------------------
    Charge (ESU x 10^10)
                -0.0000
    Dipole Moment (Debye)
         X      -0.3196      Y      -0.9243      Z       0.0629
       Tot       0.9801
    Quadrupole Moments (Debye-Ang)
        XX     -32.8100     XY      -1.2607     YY     -33.7329
        XZ      -2.0231     YZ      -1.4305     ZZ     -32.2417

 Total job time:  15.97s(wall), 85.34s(cpu)
        *  Thank you very much for using Q-Chem.  Have a nice day.  *
