 Q-Chem 5.3 (devel), Q-Chem, Inc., Pleasanton, CA (2020)
 Q-Chem 5.3.0 for Intel X86 EM64T Linux

User input:
--------------------------------------------------------------
$rem
   JOBTYPE  sp
   EXCHANGE   omegaB97X-D
   BASIS   6-311+G(2df,2pd)
   UNRESTRICTED   True
   max_scf_cycles   250
   geom_opt_max_cycles   1500
   basis2 6-31G*
   scf_algorithm rca_diis
   SYM_IGNORE  TRUE
   print_input   true
   geom_opt_dmax   80
   pop_mulliken false
   XC_GRID 000075000302
$end

$molecule
0 3
N       0.8958350149     1.3299425870     2.4966593794
O       0.1394813649     2.0004649375     1.8742623029
O       1.9751035715     1.5180248252     2.9255947306
N       -0.2407691683     -1.3133283717     3.1089080153
O       -0.8650392212     -1.5612089435     4.0908019386
O       0.0403795682     0.1210940754     2.6040735232
$end
--------------------------------------------------------------

             Standard Nuclear Orientation (Angstroms)
    I     Atom           X                Y                Z
 ----------------------------------------------------------------
    1      N       0.8958350149     1.3299425870     2.4966593794
    2      O       0.1394813649     2.0004649375     1.8742623029
    3      O       1.9751035715     1.5180248252     2.9255947306
    4      N      -0.2407691683    -1.3133283717     3.1089080153
    5      O      -0.8650392212    -1.5612089435     4.0908019386
    6      O       0.0403795682     0.1210940754     2.6040735232
 ----------------------------------------------------------------

    8    -409.8855146370      5.90E-05 Convergence criterion met
   10    -410.0415074673      9.90E-06 Convergence criterion met
 Total energy in the final basis set = -410.04150747

                    Orbital Energies (a.u.)
 --------------------------------------------------------------

 Alpha MOs
 -- Occupied --
-19.3818 -19.3809 -19.3710 -19.3687 -14.7750 -14.6142  -1.4499  -1.3411
 -1.2814  -1.1760  -0.8952  -0.7688  -0.7253  -0.7206  -0.6887  -0.6368
 -0.6173  -0.5869  -0.5259  -0.4880  -0.4726  -0.4614  -0.4204  -0.3251

 Beta MOs
 -- Occupied --
-19.3709 -19.3709 -19.3640 -19.3638 -14.7739 -14.5966  -1.4442  -1.3037
 -1.2750  -1.1444  -0.8576  -0.7488  -0.7178  -0.6922  -0.6815  -0.5727
 -0.5644  -0.5413  -0.4842  -0.4775  -0.4529  -0.4409

                    Cartesian Multipole Moments
 -----------------------------------------------------------------
    Charge (ESU x 10^10)
                -0.0000
    Dipole Moment (Debye)
         X       0.4684      Y       0.0655      Z      -0.0479
       Tot       0.4754
    Quadrupole Moments (Debye-Ang)
        XX     -33.1112     XY      -0.3581     YY     -32.5220
        XZ       0.7050     YZ       1.6470     ZZ     -32.3248

 Total job time:  14.65s(wall), 78.44s(cpu)
        *  Thank you very much for using Q-Chem.  Have a nice day.  *
