 Q-Chem 5.3 (devel), Q-Chem, Inc., Pleasanton, CA (2020)
 Q-Chem 5.3.0 for Intel X86 EM64T Linux

User input:
--------------------------------------------------------------
$rem
   JOBTYPE  sp
   EXCHANGE   omegaB97X-D
   BASIS   6-311+G(2df,2pd)
   UNRESTRICTED   True
   max_scf_cycles   250
   geom_opt_max_cycles   1500
   basis2 6-31G*
   scf_algorithm rca_diis
   SYM_IGNORE  TRUE
   print_input   true
   geom_opt_dmax   80
   pop_mulliken false
   XC_GRID 000075000302
$end

$molecule
0 3
N       0.8449420579     1.3871165523     2.5126574331
O       0.2620869195     2.1560651469     1.8036102776
O       1.6209915334     0.8562788019     3.2661254779
N       0.0537997540     -1.1808743464     3.1384196490
O       -0.4676100732     -1.2903886737     4.1825432800
O       -0.3692190615     0.1667916290     2.1969437724
$end
--------------------------------------------------------------

             Standard Nuclear Orientation (Angstroms)
    I     Atom           X                Y                Z
 ----------------------------------------------------------------
    1      N       0.8449420579     1.3871165523     2.5126574331
    2      O       0.2620869195     2.1560651469     1.8036102776
    3      O       1.6209915334     0.8562788019     3.2661254779
    4      N       0.0537997540    -1.1808743464     3.1384196490
    5      O      -0.4676100732    -1.2903886737     4.1825432800
    6      O      -0.3692190615     0.1667916290     2.1969437724
 ----------------------------------------------------------------

    9    -409.8628266581      9.55E-05 Convergence criterion met
   15    -410.0176968615      8.96E-06 Convergence criterion met
 Total energy in the final basis set = -410.01769686

                    Orbital Energies (a.u.)
 --------------------------------------------------------------

 Alpha MOs
 -- Occupied --
-19.4200 -19.4178 -19.3642 -19.3263 -14.7908 -14.5831  -1.4317  -1.3307
 -1.3122  -1.0859  -0.8194  -0.7903  -0.7214  -0.7187  -0.7108  -0.6288
 -0.6097  -0.5959  -0.5172  -0.5138  -0.4314  -0.4278  -0.4061  -0.3005

 Beta MOs
 -- Occupied --
-19.4205 -19.4160 -19.3471 -19.3123 -14.7891 -14.5679  -1.4283  -1.3107
 -1.2947  -1.0402  -0.8104  -0.7402  -0.7168  -0.7096  -0.6995  -0.5787
 -0.5488  -0.5340  -0.5137  -0.4990  -0.4130  -0.4049

                    Cartesian Multipole Moments
 -----------------------------------------------------------------
    Charge (ESU x 10^10)
                -0.0000
    Dipole Moment (Debye)
         X       1.5718      Y       1.7325      Z       0.1025
       Tot       2.3415
    Quadrupole Moments (Debye-Ang)
        XX     -31.1363     XY       1.1912     YY     -29.5429
        XZ       3.5550     YZ       5.2485     ZZ     -32.4599

 Total job time:  20.89s(wall), 115.60s(cpu)
        *  Thank you very much for using Q-Chem.  Have a nice day.  *
