 Q-Chem 5.3 (devel), Q-Chem, Inc., Pleasanton, CA (2020)
 Q-Chem 5.3.0 for Intel X86 EM64T Linux

User input:
--------------------------------------------------------------
$rem
   JOBTYPE  sp
   EXCHANGE   omegaB97X-D
   BASIS   6-311+G(2df,2pd)
   UNRESTRICTED   True
   max_scf_cycles   250
   geom_opt_max_cycles   1500
   basis2 6-31G*
   scf_algorithm rca_diis
   SYM_IGNORE  TRUE
   print_input   true
   geom_opt_dmax   80
   pop_mulliken false
   XC_GRID 000075000302
$end

$molecule
0 3
N       0.6969773814     1.2675917582     2.4469025743
O       0.5002659629     2.2217133572     1.7786015080
O       1.5443392189     1.0091042912     3.2259404766
N       -0.0838805241     -1.0500879520     3.1987560613
O       -0.3765135495     -1.5451274627     4.2186107720
O       -0.3361973595     0.1917951181     2.2314884977
$end
--------------------------------------------------------------

             Standard Nuclear Orientation (Angstroms)
    I     Atom           X                Y                Z
 ----------------------------------------------------------------
    1      N       0.6969773814     1.2675917582     2.4469025743
    2      O       0.5002659629     2.2217133572     1.7786015080
    3      O       1.5443392189     1.0091042912     3.2259404766
    4      N      -0.0838805241    -1.0500879520     3.1987560613
    5      O      -0.3765135495    -1.5451274627     4.2186107720
    6      O      -0.3361973595     0.1917951181     2.2314884977
 ----------------------------------------------------------------

    8    -409.9127293192      8.13E-05 Convergence criterion met
    9    -410.0682320578      6.02E-06 Convergence criterion met
 Total energy in the final basis set = -410.06823206

                    Orbital Energies (a.u.)
 --------------------------------------------------------------

 Alpha MOs
 -- Occupied --
-19.4004 -19.3960 -19.3564 -19.3511 -14.7689 -14.6279  -1.4390  -1.3627
 -1.2629  -1.1918  -0.8744  -0.7727  -0.7197  -0.7131  -0.6819  -0.6580
 -0.6344  -0.6323  -0.4928  -0.4893  -0.4681  -0.4551  -0.4130  -0.3407

 Beta MOs
 -- Occupied --
-19.3873 -19.3795 -19.3551 -19.3514 -14.7680 -14.6069  -1.4358  -1.3239
 -1.2612  -1.1557  -0.8290  -0.7436  -0.7107  -0.7036  -0.6739  -0.6088
 -0.5843  -0.5576  -0.4733  -0.4684  -0.4674  -0.4508

                    Cartesian Multipole Moments
 -----------------------------------------------------------------
    Charge (ESU x 10^10)
                -0.0000
    Dipole Moment (Debye)
         X      -0.1907      Y      -0.4802      Z       0.1038
       Tot       0.5270
    Quadrupole Moments (Debye-Ang)
        XX     -32.7643     XY      -0.9184     YY     -33.2823
        XZ      -1.8533     YZ       0.2182     ZZ     -32.2778

 Total job time:  13.80s(wall), 72.35s(cpu)
        *  Thank you very much for using Q-Chem.  Have a nice day.  *
