 Q-Chem 5.3 (devel), Q-Chem, Inc., Pleasanton, CA (2020)
 Q-Chem 5.3.0 for Intel X86 EM64T Linux

User input:
--------------------------------------------------------------
$rem
   JOBTYPE  sp
   EXCHANGE   omegaB97X-D
   BASIS   6-311+G(2df,2pd)
   UNRESTRICTED   True
   max_scf_cycles   250
   geom_opt_max_cycles   1500
   basis2 6-31G*
   scf_algorithm rca_diis
   SYM_IGNORE  TRUE
   print_input   true
   geom_opt_dmax   80
   pop_mulliken false
   XC_GRID 000075000302
$end

$molecule
0 3
N       0.6316159174     1.1381605887     2.4717081342
O       0.3717330190     2.2613593128     1.8165684577
O       1.6736378413     0.9821604260     3.2428372373
N       0.0305864748     -1.1478946674     3.1405536416
O       -0.4729674542     -1.3261228943     4.1701238630
O       -0.2896146682     0.1873263441     2.2585085563
$end
--------------------------------------------------------------

             Standard Nuclear Orientation (Angstroms)
    I     Atom           X                Y                Z
 ----------------------------------------------------------------
    1      N       0.6316159174     1.1381605887     2.4717081342
    2      O       0.3717330190     2.2613593128     1.8165684577
    3      O       1.6736378413     0.9821604260     3.2428372373
    4      N       0.0305864748    -1.1478946674     3.1405536416
    5      O      -0.4729674542    -1.3261228943     4.1701238630
    6      O      -0.2896146682     0.1873263441     2.2585085563
 ----------------------------------------------------------------

    9    -409.8916965303      7.09E-05 Convergence criterion met
   17    -410.0439940892      4.50E-06 Convergence criterion met
 Total energy in the final basis set = -410.04399409

                    Orbital Energies (a.u.)
 --------------------------------------------------------------

 Alpha MOs
 -- Occupied --
-19.4511 -19.4169 -19.3478 -19.3468 -14.7709 -14.6373  -1.4051  -1.3757
 -1.2196  -1.1659  -0.9037  -0.7961  -0.7178  -0.6963  -0.6897  -0.6558
 -0.6418  -0.6248  -0.5070  -0.4998  -0.4598  -0.4378  -0.4295  -0.3541

 Beta MOs
 -- Occupied --
-19.4382 -19.3991 -19.3476 -19.3444 -14.7709 -14.6186  -1.3819  -1.3477
 -1.1993  -1.1600  -0.8607  -0.7580  -0.6953  -0.6809  -0.6655  -0.6034
 -0.5947  -0.5729  -0.4909  -0.4648  -0.4360  -0.4234

                    Cartesian Multipole Moments
 -----------------------------------------------------------------
    Charge (ESU x 10^10)
                 0.0000
    Dipole Moment (Debye)
         X      -0.9223      Y      -1.8641      Z       0.1929
       Tot       2.0887
    Quadrupole Moments (Debye-Ang)
        XX     -33.9355     XY      -1.7320     YY     -34.9944
        XZ      -3.6905     YZ      -3.7856     ZZ     -31.6906

 Total job time:  23.12s(wall), 128.70s(cpu)
        *  Thank you very much for using Q-Chem.  Have a nice day.  *
