 Q-Chem 5.3 (devel), Q-Chem, Inc., Pleasanton, CA (2020)
 Q-Chem 5.3.0 for Intel X86 EM64T Linux

User input:
--------------------------------------------------------------
$rem
   JOBTYPE  sp
   EXCHANGE   omegaB97X-D
   BASIS   6-311+G(2df,2pd)
   UNRESTRICTED   True
   max_scf_cycles   250
   geom_opt_max_cycles   1500
   basis2 6-31G*
   scf_algorithm rca_diis
   SYM_IGNORE  TRUE
   print_input   true
   geom_opt_dmax   80
   pop_mulliken false
   XC_GRID 000075000302
$end

$molecule
0 3
N       0.6991012063     1.1746019688     2.5043204029
O       0.4033428830     2.1371102613     1.9009839551
O       1.6400253939     1.0388107610     3.2133568774
N       0.0415477982     -1.1478408655     3.1297499270
O       -0.4483130859     -1.2873563580     4.1747349355
O       -0.3907130654     0.1796633423     2.1771537920
$end
--------------------------------------------------------------

             Standard Nuclear Orientation (Angstroms)
    I     Atom           X                Y                Z
 ----------------------------------------------------------------
    1      N       0.6991012063     1.1746019688     2.5043204029
    2      O       0.4033428830     2.1371102613     1.9009839551
    3      O       1.6400253939     1.0388107610     3.2133568774
    4      N       0.0415477982    -1.1478408655     3.1297499270
    5      O      -0.4483130859    -1.2873563580     4.1747349355
    6      O      -0.3907130654     0.1796633423     2.1771537920
 ----------------------------------------------------------------

    8    -409.9139937446      9.52E-05 Convergence criterion met
   10    -410.0692572188      8.20E-06 Convergence criterion met
 Total energy in the final basis set = -410.06925722

                    Orbital Energies (a.u.)
 --------------------------------------------------------------

 Alpha MOs
 -- Occupied --
-19.4109 -19.3983 -19.3564 -19.3484 -14.7685 -14.6131  -1.4434  -1.3701
 -1.2588  -1.1849  -0.8486  -0.7843  -0.7175  -0.7134  -0.6841  -0.6554
 -0.6399  -0.6292  -0.4975  -0.4948  -0.4659  -0.4641  -0.4373  -0.3343

 Beta MOs
 -- Occupied --
-19.3958 -19.3812 -19.3569 -19.3463 -14.7682 -14.5959  -1.4402  -1.3337
 -1.2564  -1.1446  -0.8065  -0.7520  -0.7118  -0.7034  -0.6728  -0.6066
 -0.5820  -0.5615  -0.4768  -0.4734  -0.4606  -0.4453

                    Cartesian Multipole Moments
 -----------------------------------------------------------------
    Charge (ESU x 10^10)
                 0.0000
    Dipole Moment (Debye)
         X      -0.1392      Y      -0.6878      Z       0.1194
       Tot       0.7119
    Quadrupole Moments (Debye-Ang)
        XX     -32.7622     XY      -0.8493     YY     -33.2662
        XZ      -1.4815     YZ      -0.7677     ZZ     -31.9742

 Total job time:  15.37s(wall), 82.02s(cpu)
        *  Thank you very much for using Q-Chem.  Have a nice day.  *
