 Q-Chem 5.3 (devel), Q-Chem, Inc., Pleasanton, CA (2020)
 Q-Chem 5.3.0 for Intel X86 EM64T Linux

User input:
--------------------------------------------------------------
$rem
   JOBTYPE  sp
   EXCHANGE   omegaB97X-D
   BASIS   6-311+G(2df,2pd)
   UNRESTRICTED   True
   max_scf_cycles   250
   geom_opt_max_cycles   1500
   basis2 6-31G*
   scf_algorithm rca_diis
   SYM_IGNORE  TRUE
   print_input   true
   geom_opt_dmax   80
   pop_mulliken false
   XC_GRID 000075000302
$end

$molecule
0 3
N       0.9120248489     1.3351988475     2.4995303025
O       0.1189604369     1.9735054472     1.8896505078
O       1.9952929587     1.5602652488     2.8977574833
N       -0.2594822664     -1.3160504924     3.1031103192
O       -0.8967536091     -1.5668304878     4.0782360038
O       0.0749487611     0.1089005467     2.6320152733
$end
--------------------------------------------------------------

             Standard Nuclear Orientation (Angstroms)
    I     Atom           X                Y                Z
 ----------------------------------------------------------------
    1      N       0.9120248489     1.3351988475     2.4995303025
    2      O       0.1189604369     1.9735054472     1.8896505078
    3      O       1.9952929587     1.5602652488     2.8977574833
    4      N      -0.2594822664    -1.3160504924     3.1031103192
    5      O      -0.8967536091    -1.5668304878     4.0782360038
    6      O       0.0749487611     0.1089005467     2.6320152733
 ----------------------------------------------------------------

    8    -409.8793063532      6.05E-05 Convergence criterion met
   11    -410.0353351193      5.12E-06 Convergence criterion met
 Total energy in the final basis set = -410.03533512

                    Orbital Energies (a.u.)
 --------------------------------------------------------------

 Alpha MOs
 -- Occupied --
-19.3787 -19.3782 -19.3729 -19.3705 -14.7743 -14.6134  -1.4506  -1.3382
 -1.2833  -1.1731  -0.8959  -0.7687  -0.7249  -0.7209  -0.6897  -0.6347
 -0.6154  -0.5830  -0.5278  -0.4885  -0.4718  -0.4600  -0.4187  -0.3225

 Beta MOs
 -- Occupied --
-19.3727 -19.3674 -19.3654 -19.3620 -14.7730 -14.5959  -1.4446  -1.3013
 -1.2763  -1.1415  -0.8587  -0.7495  -0.7179  -0.6907  -0.6822  -0.5715
 -0.5620  -0.5403  -0.4852  -0.4782  -0.4505  -0.4374

                    Cartesian Multipole Moments
 -----------------------------------------------------------------
    Charge (ESU x 10^10)
                 0.0000
    Dipole Moment (Debye)
         X       0.5219      Y       0.1602      Z      -0.0847
       Tot       0.5525
    Quadrupole Moments (Debye-Ang)
        XX     -33.0698     XY      -0.3256     YY     -32.4501
        XZ       0.9479     YZ       1.8908     ZZ     -32.4514

 Total job time:  15.45s(wall), 83.16s(cpu)
        *  Thank you very much for using Q-Chem.  Have a nice day.  *
