 Q-Chem 5.3 (devel), Q-Chem, Inc., Pleasanton, CA (2020)
 Q-Chem 5.3.0 for Intel X86 EM64T Linux

User input:
--------------------------------------------------------------
$rem
   JOBTYPE  sp
   EXCHANGE   omegaB97X-D
   BASIS   6-311+G(2df,2pd)
   UNRESTRICTED   True
   max_scf_cycles   250
   geom_opt_max_cycles   1500
   basis2 6-31G*
   scf_algorithm rca_diis
   SYM_IGNORE  TRUE
   print_input   true
   geom_opt_dmax   80
   pop_mulliken false
   XC_GRID 000075000302
$end

$molecule
0 3
N       0.7048294897     1.1951485449     2.4960387512
O       0.3756232324     2.1904397653     1.8519457479
O       1.5907601690     0.9864667377     3.1841788596
N       0.0344265321     -1.1503016234     3.1397210259
O       -0.4754703515     -1.3247378808     4.1730774589
O       -0.2851779415     0.1979735663     2.2553380466
$end
--------------------------------------------------------------

             Standard Nuclear Orientation (Angstroms)
    I     Atom           X                Y                Z
 ----------------------------------------------------------------
    1      N       0.7048294897     1.1951485449     2.4960387512
    2      O       0.3756232324     2.1904397653     1.8519457479
    3      O       1.5907601690     0.9864667377     3.1841788596
    4      N       0.0344265321    -1.1503016234     3.1397210259
    5      O      -0.4754703515    -1.3247378808     4.1730774589
    6      O      -0.2851779415     0.1979735663     2.2553380466
 ----------------------------------------------------------------

    8    -409.9213738289      8.09E-05 Convergence criterion met
   11    -410.0774062860      5.57E-06 Convergence criterion met
 Total energy in the final basis set = -410.07740629

                    Orbital Energies (a.u.)
 --------------------------------------------------------------

 Alpha MOs
 -- Occupied --
-19.4116 -19.3991 -19.3623 -19.3403 -14.7740 -14.6187  -1.4546  -1.3712
 -1.2633  -1.2005  -0.8716  -0.7781  -0.7233  -0.7227  -0.6896  -0.6564
 -0.6356  -0.6331  -0.5004  -0.4980  -0.4690  -0.4617  -0.4332  -0.3396

 Beta MOs
 -- Occupied --
-19.3984 -19.3812 -19.3627 -19.3378 -14.7737 -14.6008  -1.4513  -1.3333
 -1.2569  -1.1692  -0.8284  -0.7461  -0.7212  -0.7083  -0.6761  -0.6064
 -0.5839  -0.5598  -0.4832  -0.4735  -0.4572  -0.4446

                    Cartesian Multipole Moments
 -----------------------------------------------------------------
    Charge (ESU x 10^10)
                -0.0000
    Dipole Moment (Debye)
         X       0.0652      Y      -0.9453      Z       0.3492
       Tot       1.0099
    Quadrupole Moments (Debye-Ang)
        XX     -32.4680     XY      -0.7313     YY     -34.1055
        XZ      -0.7944     YZ      -0.8347     ZZ     -30.8036

 Total job time:  16.36s(wall), 87.96s(cpu)
        *  Thank you very much for using Q-Chem.  Have a nice day.  *
