 Q-Chem 5.3 (devel), Q-Chem, Inc., Pleasanton, CA (2020)
 Q-Chem 5.3.0 for Intel X86 EM64T Linux

User input:
--------------------------------------------------------------
$rem
   JOBTYPE  sp
   EXCHANGE   omegaB97X-D
   BASIS   6-311+G(2df,2pd)
   UNRESTRICTED   True
   max_scf_cycles   250
   geom_opt_max_cycles   1500
   basis2 6-31G*
   scf_algorithm rca_diis
   SYM_IGNORE  TRUE
   print_input   true
   geom_opt_dmax   80
   pop_mulliken false
   XC_GRID 000075000302
$end

$molecule
0 3
N       0.6675227659     1.2413055413     2.4557429930
O       0.3399574418     2.2170240191     1.8151482938
O       1.5464444230     0.8953769613     3.1630517039
N       0.0401866071     -1.1315208758     3.1468413030
O       -0.5108324310     -1.3541617413     4.1620128440
O       -0.1382876767     0.2269652053     2.3575027522
$end
--------------------------------------------------------------

             Standard Nuclear Orientation (Angstroms)
    I     Atom           X                Y                Z
 ----------------------------------------------------------------
    1      N       0.6675227659     1.2413055413     2.4557429930
    2      O       0.3399574418     2.2170240191     1.8151482938
    3      O       1.5464444230     0.8953769613     3.1630517039
    4      N       0.0401866071    -1.1315208758     3.1468413030
    5      O      -0.5108324310    -1.3541617413     4.1620128440
    6      O      -0.1382876767     0.2269652053     2.3575027522
 ----------------------------------------------------------------

    8    -409.8949825802      6.20E-05 Convergence criterion met
   10    -410.0511931966      7.90E-06 Convergence criterion met
 Total energy in the final basis set = -410.05119320

                    Orbital Energies (a.u.)
 --------------------------------------------------------------

 Alpha MOs
 -- Occupied --
-19.4125 -19.4003 -19.3527 -19.3334 -14.7791 -14.6268  -1.4713  -1.3665
 -1.2646  -1.2291  -0.9153  -0.7695  -0.7358  -0.7239  -0.6910  -0.6577
 -0.6337  -0.6185  -0.5059  -0.4987  -0.4637  -0.4560  -0.4341  -0.3452

 Beta MOs
 -- Occupied --
-19.4003 -19.3822 -19.3505 -19.3332 -14.7790 -14.6080  -1.4629  -1.3277
 -1.2601  -1.2042  -0.8730  -0.7362  -0.7323  -0.7063  -0.6758  -0.6009
 -0.5849  -0.5510  -0.4814  -0.4682  -0.4619  -0.4354

                    Cartesian Multipole Moments
 -----------------------------------------------------------------
    Charge (ESU x 10^10)
                -0.0000
    Dipole Moment (Debye)
         X      -0.3769      Y      -0.8633      Z       0.0303
       Tot       0.9425
    Quadrupole Moments (Debye-Ang)
        XX     -33.4640     XY      -1.2008     YY     -33.6480
        XZ      -2.3223     YZ      -0.9098     ZZ     -32.3045

 Total job time:  15.46s(wall), 82.96s(cpu)
        *  Thank you very much for using Q-Chem.  Have a nice day.  *
