 Q-Chem 5.3 (devel), Q-Chem, Inc., Pleasanton, CA (2020)
 Q-Chem 5.3.0 for Intel X86 EM64T Linux

User input:
--------------------------------------------------------------
$rem
   JOBTYPE  sp
   EXCHANGE   omegaB97X-D
   BASIS   6-311+G(2df,2pd)
   UNRESTRICTED   True
   max_scf_cycles   250
   geom_opt_max_cycles   1500
   basis2 6-31G*
   scf_algorithm rca_diis
   SYM_IGNORE  TRUE
   print_input   true
   geom_opt_dmax   80
   pop_mulliken false
   XC_GRID 000075000302
$end

$molecule
0 3
N       0.6867756910     1.2168630517     2.4761453543
O       0.3909027711     2.1739908941     1.8478056666
O       1.5975066238     0.9853805251     3.1998776489
N       0.0094991914     -1.1533651435     3.1781185138
O       -0.4470885334     -1.3274451046     4.1269895796
O       -0.2926046138     0.1995648871     2.2713631267
$end
--------------------------------------------------------------

             Standard Nuclear Orientation (Angstroms)
    I     Atom           X                Y                Z
 ----------------------------------------------------------------
    1      N       0.6867756910     1.2168630517     2.4761453543
    2      O       0.3909027711     2.1739908941     1.8478056666
    3      O       1.5975066238     0.9853805251     3.1998776489
    4      N       0.0094991914    -1.1533651435     3.1781185138
    5      O      -0.4470885334    -1.3274451046     4.1269895796
    6      O      -0.2926046138     0.1995648871     2.2713631267
 ----------------------------------------------------------------

    7    -409.8988416550      9.97E-05 Convergence criterion met
    9    -410.0608175564      7.51E-06 Convergence criterion met
 Total energy in the final basis set = -410.06081756

                    Orbital Energies (a.u.)
 --------------------------------------------------------------

 Alpha MOs
 -- Occupied --
-19.3999 -19.3958 -19.3472 -19.3419 -14.7675 -14.6013  -1.4519  -1.4374
 -1.2567  -1.2013  -0.8580  -0.7723  -0.7220  -0.7150  -0.7000  -0.6744
 -0.6653  -0.6438  -0.4982  -0.4921  -0.4613  -0.4554  -0.4319  -0.3014

 Beta MOs
 -- Occupied --
-19.3844 -19.3804 -19.3449 -19.3423 -14.7671 -14.5834  -1.4368  -1.4158
 -1.2543  -1.1624  -0.8169  -0.7384  -0.7121  -0.7045  -0.6701  -0.6352
 -0.6120  -0.5900  -0.4732  -0.4652  -0.4600  -0.4443

                    Cartesian Multipole Moments
 -----------------------------------------------------------------
    Charge (ESU x 10^10)
                -0.0000
    Dipole Moment (Debye)
         X      -0.3675      Y      -1.0508      Z       0.3489
       Tot       1.1666
    Quadrupole Moments (Debye-Ang)
        XX     -33.0031     XY      -1.0337     YY     -32.8289
        XZ      -2.2819     YZ      -1.9861     ZZ     -30.3681

 Total job time:  13.70s(wall), 71.98s(cpu)
        *  Thank you very much for using Q-Chem.  Have a nice day.  *
