 Q-Chem 5.3 (devel), Q-Chem, Inc., Pleasanton, CA (2020)
 Q-Chem 5.3.0 for Intel X86 EM64T Linux

User input:
--------------------------------------------------------------
$rem
   JOBTYPE  sp
   EXCHANGE   omegaB97X-D
   BASIS   6-311+G(2df,2pd)
   UNRESTRICTED   True
   max_scf_cycles   250
   geom_opt_max_cycles   1500
   basis2 6-31G*
   scf_algorithm rca_diis
   SYM_IGNORE  TRUE
   print_input   true
   geom_opt_dmax   80
   pop_mulliken false
   XC_GRID 000075000302
$end

$molecule
0 3
N       0.6935384733     1.2406129098     2.4600250391
O       0.4402011375     2.2046544763     1.8176337965
O       1.5742550854     0.9971250596     3.2091501600
N       -0.0221770978     -1.1007386606     3.1656113439
O       -0.4313908570     -1.4437491773     4.2062654445
O       -0.3094356113     0.1970845021     2.2416141060
$end
--------------------------------------------------------------

             Standard Nuclear Orientation (Angstroms)
    I     Atom           X                Y                Z
 ----------------------------------------------------------------
    1      N       0.6935384733     1.2406129098     2.4600250391
    2      O       0.4402011375     2.2046544763     1.8176337965
    3      O       1.5742550854     0.9971250596     3.2091501600
    4      N      -0.0221770978    -1.1007386606     3.1656113439
    5      O      -0.4313908570    -1.4437491773     4.2062654445
    6      O      -0.3094356113     0.1970845021     2.2416141060
 ----------------------------------------------------------------

    7    -409.9228858396      9.31E-05 Convergence criterion met
    9    -410.0782760223      6.93E-06 Convergence criterion met
 Total energy in the final basis set = -410.07827602

                    Orbital Energies (a.u.)
 --------------------------------------------------------------

 Alpha MOs
 -- Occupied --
-19.4075 -19.3975 -19.3528 -19.3496 -14.7716 -14.6253  -1.4410  -1.3657
 -1.2608  -1.2002  -0.8755  -0.7747  -0.7198  -0.7153  -0.6836  -0.6569
 -0.6344  -0.6328  -0.4966  -0.4935  -0.4662  -0.4573  -0.4302  -0.3412

 Beta MOs
 -- Occupied --
-19.3944 -19.3803 -19.3512 -19.3499 -14.7710 -14.6056  -1.4373  -1.3272
 -1.2590  -1.1655  -0.8308  -0.7437  -0.7131  -0.7039  -0.6735  -0.6067
 -0.5835  -0.5578  -0.4767  -0.4701  -0.4652  -0.4496

                    Cartesian Multipole Moments
 -----------------------------------------------------------------
    Charge (ESU x 10^10)
                -0.0000
    Dipole Moment (Debye)
         X      -0.2071      Y      -0.6509      Z       0.0799
       Tot       0.6877
    Quadrupole Moments (Debye-Ang)
        XX     -32.8931     XY      -0.9886     YY     -33.3892
        XZ      -1.8257     YZ      -0.3321     ZZ     -32.3169

 Total job time:  13.66s(wall), 71.71s(cpu)
        *  Thank you very much for using Q-Chem.  Have a nice day.  *
