 Q-Chem 5.3 (devel), Q-Chem, Inc., Pleasanton, CA (2020)
 Q-Chem 5.3.0 for Intel X86 EM64T Linux

User input:
--------------------------------------------------------------
$rem
   JOBTYPE  sp
   EXCHANGE   omegaB97X-D
   BASIS   6-311+G(2df,2pd)
   UNRESTRICTED   True
   max_scf_cycles   250
   geom_opt_max_cycles   1500
   basis2 6-31G*
   scf_algorithm rca_diis
   SYM_IGNORE  TRUE
   print_input   true
   geom_opt_dmax   80
   pop_mulliken false
   XC_GRID 000075000302
$end

$molecule
0 3
N       0.6897937793     1.1963825698     2.4811410625
O       0.3554733358     2.1902599234     1.8857420300
O       1.6141926307     0.9784567687     3.1780555932
N       0.0898418899     -1.1466556366     3.0609151030
O       -0.5392015623     -1.3170796338     4.2666306821
O       -0.2651089433     0.1936251183     2.2278154192
$end
--------------------------------------------------------------

             Standard Nuclear Orientation (Angstroms)
    I     Atom           X                Y                Z
 ----------------------------------------------------------------
    1      N       0.6897937793     1.1963825698     2.4811410625
    2      O       0.3554733358     2.1902599234     1.8857420300
    3      O       1.6141926307     0.9784567687     3.1780555932
    4      N       0.0898418899    -1.1466556366     3.0609151030
    5      O      -0.5392015623    -1.3170796338     4.2666306821
    6      O      -0.2651089433     0.1936251183     2.2278154192
 ----------------------------------------------------------------

   10    -409.8939906358      7.76E-05 Convergence criterion met
   12    -410.0458954698      9.13E-06 Convergence criterion met
 Total energy in the final basis set = -410.04589547

                    Orbital Energies (a.u.)
 --------------------------------------------------------------

 Alpha MOs
 -- Occupied --
-19.4241 -19.4219 -19.3536 -19.3466 -14.7777 -14.6447  -1.4459  -1.2709
 -1.2585  -1.2048  -0.9090  -0.7842  -0.7206  -0.7184  -0.6832  -0.6344
 -0.5997  -0.5916  -0.5107  -0.4965  -0.4731  -0.4633  -0.4450  -0.3993

 Beta MOs
 -- Occupied --
-19.4166 -19.3979 -19.3538 -19.3451 -14.7774 -14.6272  -1.4428  -1.2570
 -1.2267  -1.1707  -0.8587  -0.7577  -0.7191  -0.7075  -0.6750  -0.5910
 -0.5464  -0.5039  -0.4777  -0.4756  -0.4604  -0.4448

                    Cartesian Multipole Moments
 -----------------------------------------------------------------
    Charge (ESU x 10^10)
                -0.0000
    Dipole Moment (Debye)
         X      -0.2297      Y      -0.7336      Z       0.0685
       Tot       0.7717
    Quadrupole Moments (Debye-Ang)
        XX     -33.2176     XY      -0.8113     YY     -34.5076
        XZ      -1.9870     YZ      -0.5309     ZZ     -32.1559

 Total job time:  17.59s(wall), 95.38s(cpu)
        *  Thank you very much for using Q-Chem.  Have a nice day.  *
