 Q-Chem 5.3 (devel), Q-Chem, Inc., Pleasanton, CA (2020)
 Q-Chem 5.3.0 for Intel X86 EM64T Linux

User input:
--------------------------------------------------------------
$rem
   JOBTYPE  sp
   EXCHANGE   omegaB97X-D
   BASIS   6-311+G(2df,2pd)
   UNRESTRICTED   True
   max_scf_cycles   250
   geom_opt_max_cycles   1500
   basis2 6-31G*
   scf_algorithm rca_diis
   SYM_IGNORE  TRUE
   print_input   true
   geom_opt_dmax   80
   pop_mulliken false
   XC_GRID 000075000302
$end

$molecule
0 3
N       0.7486028975     1.2541164425     2.4803161596
O       0.3152151159     2.1533379138     1.8335502301
O       1.7282583946     1.1402322361     3.1309211358
N       -0.0517920431     -1.2199980199     3.1365360784
O       -0.5869324461     -1.4205776605     4.1622649312
O       -0.2083607886     0.1878781979     2.3567113549
$end
--------------------------------------------------------------

             Standard Nuclear Orientation (Angstroms)
    I     Atom           X                Y                Z
 ----------------------------------------------------------------
    1      N       0.7486028975     1.2541164425     2.4803161596
    2      O       0.3152151159     2.1533379138     1.8335502301
    3      O       1.7282583946     1.1402322361     3.1309211358
    4      N      -0.0517920431    -1.2199980199     3.1365360784
    5      O      -0.5869324461    -1.4205776605     4.1622649312
    6      O      -0.2083607886     0.1878781979     2.3567113549
 ----------------------------------------------------------------

    8    -409.9217467884      5.75E-05 Convergence criterion met
   10    -410.0772560968      5.49E-06 Convergence criterion met
 Total energy in the final basis set = -410.07725610

                    Orbital Energies (a.u.)
 --------------------------------------------------------------

 Alpha MOs
 -- Occupied --
-19.4064 -19.3960 -19.3551 -19.3550 -14.7757 -14.6205  -1.4455  -1.3630
 -1.2658  -1.2002  -0.8827  -0.7744  -0.7226  -0.7189  -0.6840  -0.6525
 -0.6302  -0.6236  -0.5080  -0.4943  -0.4685  -0.4634  -0.4334  -0.3397

 Beta MOs
 -- Occupied --
-19.3940 -19.3779 -19.3554 -19.3524 -14.7753 -14.6024  -1.4412  -1.3243
 -1.2626  -1.1676  -0.8409  -0.7448  -0.7168  -0.7024  -0.6757  -0.5938
 -0.5800  -0.5544  -0.4782  -0.4725  -0.4645  -0.4508

                    Cartesian Multipole Moments
 -----------------------------------------------------------------
    Charge (ESU x 10^10)
                -0.0000
    Dipole Moment (Debye)
         X      -0.0699      Y      -0.6000      Z       0.0944
       Tot       0.6114
    Quadrupole Moments (Debye-Ang)
        XX     -33.1956     XY      -0.7616     YY     -33.1615
        XZ      -1.3336     YZ      -0.2551     ZZ     -31.9935

 Total job time:  15.17s(wall), 81.14s(cpu)
        *  Thank you very much for using Q-Chem.  Have a nice day.  *
