 Q-Chem 5.3 (devel), Q-Chem, Inc., Pleasanton, CA (2020)
 Q-Chem 5.3.0 for Intel X86 EM64T Linux

User input:
--------------------------------------------------------------
$rem
   JOBTYPE  sp
   EXCHANGE   omegaB97X-D
   BASIS   6-311+G(2df,2pd)
   UNRESTRICTED   True
   max_scf_cycles   250
   geom_opt_max_cycles   1500
   basis2 6-31G*
   scf_algorithm rca_diis
   SYM_IGNORE  TRUE
   print_input   true
   geom_opt_dmax   80
   pop_mulliken false
   XC_GRID 000075000302
$end

$molecule
0 3
N       0.6368669587     1.2562814684     2.4236944978
O       0.3895859786     2.1453153404     1.8817791827
O       1.6363486926     0.9682784572     3.2208303154
N       0.0398383489     -1.1502673257     3.1367356131
O       -0.4807251714     -1.3263024086     4.1778728977
O       -0.2769236774     0.2016835782     2.2593873835
$end
--------------------------------------------------------------

             Standard Nuclear Orientation (Angstroms)
    I     Atom           X                Y                Z
 ----------------------------------------------------------------
    1      N       0.6368669587     1.2562814684     2.4236944978
    2      O       0.3895859786     2.1453153404     1.8817791827
    3      O       1.6363486926     0.9682784572     3.2208303154
    4      N       0.0398383489    -1.1502673257     3.1367356131
    5      O      -0.4807251714    -1.3263024086     4.1778728977
    6      O      -0.2769236774     0.2016835782     2.2593873835
 ----------------------------------------------------------------

    8    -409.8831249393      8.39E-05 Convergence criterion met
   11    -410.0434357083      7.64E-06 Convergence criterion met
 Total energy in the final basis set = -410.04343571

                    Orbital Energies (a.u.)
 --------------------------------------------------------------

 Alpha MOs
 -- Occupied --
-19.4104 -19.3995 -19.3831 -19.3079 -14.7686 -14.6220  -1.5048  -1.3630
 -1.2466  -1.1741  -0.8826  -0.7770  -0.7423  -0.7339  -0.6873  -0.6544
 -0.6318  -0.6300  -0.5060  -0.5043  -0.4565  -0.4395  -0.4211  -0.3401

 Beta MOs
 -- Occupied --
-19.3969 -19.3817 -19.3816 -19.3080 -14.7684 -14.6035  -1.5011  -1.3240
 -1.2262  -1.1587  -0.8389  -0.7488  -0.7404  -0.7132  -0.6788  -0.5967
 -0.5805  -0.5561  -0.4851  -0.4809  -0.4384  -0.4185

                    Cartesian Multipole Moments
 -----------------------------------------------------------------
    Charge (ESU x 10^10)
                 0.0000
    Dipole Moment (Debye)
         X      -1.0749      Y      -0.1736      Z      -0.7319
       Tot       1.3119
    Quadrupole Moments (Debye-Ang)
        XX     -34.7148     XY      -1.6916     YY     -31.1875
        XZ      -4.7740     YZ      -0.7576     ZZ     -36.1464

 Total job time:  16.64s(wall), 89.73s(cpu)
        *  Thank you very much for using Q-Chem.  Have a nice day.  *
