 Q-Chem 5.3 (devel), Q-Chem, Inc., Pleasanton, CA (2020)
 Q-Chem 5.3.0 for Intel X86 EM64T Linux

User input:
--------------------------------------------------------------
$rem
   JOBTYPE  sp
   EXCHANGE   omegaB97X-D
   BASIS   6-311+G(2df,2pd)
   UNRESTRICTED   True
   max_scf_cycles   250
   geom_opt_max_cycles   1500
   basis2 6-31G*
   scf_algorithm rca_diis
   SYM_IGNORE  TRUE
   print_input   true
   geom_opt_dmax   80
   pop_mulliken false
   XC_GRID 000075000302
$end

$molecule
0 3
N       0.7325925859     1.2602678344     2.4861029933
O       0.3426571662     2.1814070657     1.8371568655
O       1.6139649530     0.9446180612     3.2199561996
N       0.0391236540     -1.1618842722     3.1390132369
O       -0.4745646405     -1.3176618444     4.1780252604
O       -0.3087825885     0.1882422652     2.2400453343
$end
--------------------------------------------------------------

             Standard Nuclear Orientation (Angstroms)
    I     Atom           X                Y                Z
 ----------------------------------------------------------------
    1      N       0.7325925859     1.2602678344     2.4861029933
    2      O       0.3426571662     2.1814070657     1.8371568655
    3      O       1.6139649530     0.9446180612     3.2199561996
    4      N       0.0391236540    -1.1618842722     3.1390132369
    5      O      -0.4745646405    -1.3176618444     4.1780252604
    6      O      -0.3087825885     0.1882422652     2.2400453343
 ----------------------------------------------------------------

    8    -409.9200710787      9.29E-05 Convergence criterion met
    9    -410.0746126015      7.39E-06 Convergence criterion met
 Total energy in the final basis set = -410.07461260

                    Orbital Energies (a.u.)
 --------------------------------------------------------------

 Alpha MOs
 -- Occupied --
-19.3909 -19.3895 -19.3688 -19.3688 -14.7778 -14.6090  -1.4347  -1.3580
 -1.2767  -1.1693  -0.8511  -0.7779  -0.7230  -0.7133  -0.6862  -0.6528
 -0.6284  -0.6224  -0.4975  -0.4833  -0.4762  -0.4654  -0.4346  -0.3297

 Beta MOs
 -- Occupied --
-19.3772 -19.3717 -19.3692 -19.3670 -14.7773 -14.5915  -1.4314  -1.3202
 -1.2748  -1.1311  -0.8115  -0.7493  -0.7117  -0.7032  -0.6816  -0.5980
 -0.5728  -0.5512  -0.4801  -0.4695  -0.4586  -0.4572

                    Cartesian Multipole Moments
 -----------------------------------------------------------------
    Charge (ESU x 10^10)
                -0.0000
    Dipole Moment (Debye)
         X       0.2530      Y      -0.0907      Z       0.0626
       Tot       0.2760
    Quadrupole Moments (Debye-Ang)
        XX     -32.5119     XY      -0.3794     YY     -32.3995
        XZ      -0.3703     YZ       0.8329     ZZ     -32.3710

 Total job time:  13.66s(wall), 71.91s(cpu)
        *  Thank you very much for using Q-Chem.  Have a nice day.  *
