 Q-Chem 5.3 (devel), Q-Chem, Inc., Pleasanton, CA (2020)
 Q-Chem 5.3.0 for Intel X86 EM64T Linux

User input:
--------------------------------------------------------------
$rem
   JOBTYPE  sp
   EXCHANGE   omegaB97X-D
   BASIS   6-311+G(2df,2pd)
   UNRESTRICTED   True
   max_scf_cycles   250
   geom_opt_max_cycles   1500
   basis2 6-31G*
   scf_algorithm rca_diis
   SYM_IGNORE  TRUE
   print_input   true
   geom_opt_dmax   80
   pop_mulliken false
   XC_GRID 000075000302
$end

$molecule
0 3
N       0.6952523388     1.1489510692     2.5056891622
O       0.3127563823     2.0593065180     1.8253651996
O       1.6217701289     0.9689178970     3.2386217408
N       -0.0024014417     -1.0411821312     3.1358796806
O       -0.4355289172     -1.3736124722     4.1584072485
O       -0.2468573610     0.3326082291     2.2363368583
$end
--------------------------------------------------------------

             Standard Nuclear Orientation (Angstroms)
    I     Atom           X                Y                Z
 ----------------------------------------------------------------
    1      N       0.6952523388     1.1489510692     2.5056891622
    2      O       0.3127563823     2.0593065180     1.8253651996
    3      O       1.6217701289     0.9689178970     3.2386217408
    4      N      -0.0024014417    -1.0411821312     3.1358796806
    5      O      -0.4355289172    -1.3736124722     4.1584072485
    6      O      -0.2468573610     0.3326082291     2.2363368583
 ----------------------------------------------------------------

    8    -409.9002338463      7.36E-05 Convergence criterion met
   10    -410.0560525343      6.27E-06 Convergence criterion met
 Total energy in the final basis set = -410.05605253

                    Orbital Energies (a.u.)
 --------------------------------------------------------------

 Alpha MOs
 -- Occupied --
-19.4184 -19.3906 -19.3512 -19.3467 -14.7820 -14.6044  -1.4865  -1.3645
 -1.2811  -1.2244  -0.8768  -0.7775  -0.7438  -0.7259  -0.6986  -0.6504
 -0.6301  -0.6245  -0.5167  -0.5044  -0.4666  -0.4633  -0.4134  -0.3299

 Beta MOs
 -- Occupied --
-19.4049 -19.3748 -19.3517 -19.3411 -14.7821 -14.5864  -1.4756  -1.3296
 -1.2752  -1.1992  -0.8329  -0.7484  -0.7402  -0.7048  -0.6801  -0.6085
 -0.5818  -0.5551  -0.4917  -0.4771  -0.4590  -0.4410

                    Cartesian Multipole Moments
 -----------------------------------------------------------------
    Charge (ESU x 10^10)
                 0.0000
    Dipole Moment (Debye)
         X      -0.3022      Y      -0.6156      Z      -0.0505
       Tot       0.6876
    Quadrupole Moments (Debye-Ang)
        XX     -32.8658     XY      -1.0962     YY     -33.9071
        XZ      -2.0545     YZ      -0.0504     ZZ     -32.9329

 Total job time:  15.94s(wall), 85.00s(cpu)
        *  Thank you very much for using Q-Chem.  Have a nice day.  *
