 Q-Chem 5.3 (devel), Q-Chem, Inc., Pleasanton, CA (2020)
 Q-Chem 5.3.0 for Intel X86 EM64T Linux

User input:
--------------------------------------------------------------
$rem
   JOBTYPE  sp
   EXCHANGE   omegaB97X-D
   BASIS   6-311+G(2df,2pd)
   UNRESTRICTED   True
   max_scf_cycles   250
   geom_opt_max_cycles   1500
   basis2 6-31G*
   scf_algorithm rca_diis
   SYM_IGNORE  TRUE
   print_input   true
   geom_opt_dmax   80
   pop_mulliken false
   XC_GRID 000075000302
$end

$molecule
0 3
N       0.6941647295     1.1639959071     2.4988143516
O       0.3295074634     2.0897769313     1.8335518685
O       1.6175511626     0.9729478395     3.2281741248
N       0.0069019072     -1.0686071497     3.1355289658
O       -0.4456943000     -1.3622878430     4.1640875233
O       -0.2574398326     0.2991634247     2.2401430561
$end
--------------------------------------------------------------

             Standard Nuclear Orientation (Angstroms)
    I     Atom           X                Y                Z
 ----------------------------------------------------------------
    1      N       0.6941647295     1.1639959071     2.4988143516
    2      O       0.3295074634     2.0897769313     1.8335518685
    3      O       1.6175511626     0.9729478395     3.2281741248
    4      N       0.0069019072    -1.0686071497     3.1355289658
    5      O      -0.4456943000    -1.3622878430     4.1640875233
    6      O      -0.2574398326     0.2991634247     2.2401430561
 ----------------------------------------------------------------

    8    -409.9125933571      7.28E-05 Convergence criterion met
   10    -410.0680415398      7.29E-06 Convergence criterion met
 Total energy in the final basis set = -410.06804154

                    Orbital Energies (a.u.)
 --------------------------------------------------------------

 Alpha MOs
 -- Occupied --
-19.4184 -19.3947 -19.3497 -19.3459 -14.7794 -14.6111  -1.4708  -1.3673
 -1.2734  -1.2231  -0.8779  -0.7774  -0.7353  -0.7242  -0.6950  -0.6525
 -0.6315  -0.6282  -0.5122  -0.5036  -0.4652  -0.4625  -0.4217  -0.3345

 Beta MOs
 -- Occupied --
-19.4048 -19.3782 -19.3502 -19.3414 -14.7794 -14.5929  -1.4618  -1.3315
 -1.2679  -1.1964  -0.8333  -0.7467  -0.7320  -0.7049  -0.6776  -0.6076
 -0.5833  -0.5569  -0.4891  -0.4756  -0.4595  -0.4428

                    Cartesian Multipole Moments
 -----------------------------------------------------------------
    Charge (ESU x 10^10)
                 0.0000
    Dipole Moment (Debye)
         X      -0.3024      Y      -0.7448      Z       0.0118
       Tot       0.8039
    Quadrupole Moments (Debye-Ang)
        XX     -32.9401     XY      -1.0887     YY     -33.8540
        XZ      -2.0623     YZ      -0.4781     ZZ     -32.5813

 Total job time:  15.90s(wall), 84.90s(cpu)
        *  Thank you very much for using Q-Chem.  Have a nice day.  *
