 Q-Chem 5.3 (devel), Q-Chem, Inc., Pleasanton, CA (2020)
 Q-Chem 5.3.0 for Intel X86 EM64T Linux

User input:
--------------------------------------------------------------
$rem
   JOBTYPE  sp
   EXCHANGE   omegaB97X-D
   BASIS   6-311+G(2df,2pd)
   UNRESTRICTED   True
   max_scf_cycles   250
   geom_opt_max_cycles   1500
   basis2 6-31G*
   scf_algorithm rca_diis
   SYM_IGNORE  TRUE
   print_input   true
   geom_opt_dmax   80
   pop_mulliken false
   XC_GRID 000075000302
$end

$molecule
0 3
N       0.7396178857     1.2793386885     2.4823825203
O       0.4017101390     2.0985552448     1.9106003583
O       1.5295213116     1.0004346677     3.1337068910
N       0.0379933023     -1.1582625458     3.1388221181
O       -0.4829619959     -1.3289430382     4.1802454657
O       -0.2808895127     0.2038660929     2.2545425366
$end
--------------------------------------------------------------

             Standard Nuclear Orientation (Angstroms)
    I     Atom           X                Y                Z
 ----------------------------------------------------------------
    1      N       0.7396178857     1.2793386885     2.4823825203
    2      O       0.4017101390     2.0985552448     1.9106003583
    3      O       1.5295213116     1.0004346677     3.1337068910
    4      N       0.0379933023    -1.1582625458     3.1388221181
    5      O      -0.4829619959    -1.3289430382     4.1802454657
    6      O      -0.2808895127     0.2038660929     2.2545425366
 ----------------------------------------------------------------

    8    -409.8428249840      6.49E-05 Convergence criterion met
    8    -410.0129642089      9.50E-06 Convergence criterion met
 Total energy in the final basis set = -410.01296421

                    Orbital Energies (a.u.)
 --------------------------------------------------------------

 Alpha MOs
 -- Occupied --
-19.3753 -19.3596 -19.3582 -19.3537 -14.7724 -14.5967  -1.5574  -1.3857
 -1.3401  -1.1663  -0.8525  -0.7960  -0.7647  -0.7458  -0.7040  -0.6436
 -0.6208  -0.6097  -0.5073  -0.5047  -0.4661  -0.4620  -0.4216  -0.3195

 Beta MOs
 -- Occupied --
-19.3580 -19.3574 -19.3539 -19.3451 -14.7721 -14.5791  -1.5554  -1.3841
 -1.3017  -1.1302  -0.8146  -0.7951  -0.7443  -0.7190  -0.7017  -0.5905
 -0.5594  -0.5406  -0.5042  -0.4835  -0.4498  -0.4439

                    Cartesian Multipole Moments
 -----------------------------------------------------------------
    Charge (ESU x 10^10)
                 0.0000
    Dipole Moment (Debye)
         X       0.7288      Y       0.7566      Z      -0.0848
       Tot       1.0539
    Quadrupole Moments (Debye-Ang)
        XX     -31.8166     XY       0.1388     YY     -31.0936
        XZ       0.7771     YZ       3.2002     ZZ     -32.8849

 Total job time:  13.05s(wall), 68.24s(cpu)
        *  Thank you very much for using Q-Chem.  Have a nice day.  *
