 Q-Chem 5.3 (devel), Q-Chem, Inc., Pleasanton, CA (2020)
 Q-Chem 5.3.0 for Intel X86 EM64T Linux

User input:
--------------------------------------------------------------
$rem
   JOBTYPE  sp
   EXCHANGE   omegaB97X-D
   BASIS   6-311+G(2df,2pd)
   UNRESTRICTED   True
   max_scf_cycles   250
   geom_opt_max_cycles   1500
   basis2 6-31G*
   scf_algorithm rca_diis
   SYM_IGNORE  TRUE
   print_input   true
   geom_opt_dmax   80
   pop_mulliken false
   XC_GRID 000075000302
$end

$molecule
0 3
N       0.6735507868     1.2612307301     2.4612294472
O       0.4282022251     2.2675981314     1.8884101803
O       1.5883769234     0.9913356790     3.1471901589
N       0.0673626663     -1.2326769354     3.1530922848
O       -0.5148506472     -1.2865654137     4.1728221256
O       -0.2976508242     0.0940669185     2.2775556931
$end
--------------------------------------------------------------

             Standard Nuclear Orientation (Angstroms)
    I     Atom           X                Y                Z
 ----------------------------------------------------------------
    1      N       0.6735507868     1.2612307301     2.4612294472
    2      O       0.4282022251     2.2675981314     1.8884101803
    3      O       1.5883769234     0.9913356790     3.1471901589
    4      N       0.0673626663    -1.2326769354     3.1530922848
    5      O      -0.5148506472    -1.2865654137     4.1728221256
    6      O      -0.2976508242     0.0940669185     2.2775556931
 ----------------------------------------------------------------

    7    -409.9160735237      7.87E-05 Convergence criterion met
   10    -410.0716650692      5.08E-06 Convergence criterion met
 Total energy in the final basis set = -410.07166507

                    Orbital Energies (a.u.)
 --------------------------------------------------------------

 Alpha MOs
 -- Occupied --
-19.4011 -19.4003 -19.3603 -19.3488 -14.7688 -14.6196  -1.4396  -1.3667
 -1.2609  -1.1797  -0.8645  -0.7772  -0.7186  -0.7118  -0.6802  -0.6567
 -0.6340  -0.6304  -0.4955  -0.4860  -0.4679  -0.4603  -0.4455  -0.3395

 Beta MOs
 -- Occupied --
-19.3882 -19.3811 -19.3589 -19.3492 -14.7682 -14.6028  -1.4370  -1.3270
 -1.2592  -1.1420  -0.8236  -0.7451  -0.7104  -0.7044  -0.6735  -0.5996
 -0.5800  -0.5585  -0.4685  -0.4674  -0.4633  -0.4478

                    Cartesian Multipole Moments
 -----------------------------------------------------------------
    Charge (ESU x 10^10)
                 0.0000
    Dipole Moment (Debye)
         X      -0.1466      Y      -0.5347      Z       0.0995
       Tot       0.5633
    Quadrupole Moments (Debye-Ang)
        XX     -33.0750     XY      -0.7852     YY     -32.7514
        XZ      -1.4937     YZ      -0.5962     ZZ     -31.8594

 Total job time:  14.79s(wall), 79.09s(cpu)
        *  Thank you very much for using Q-Chem.  Have a nice day.  *
