 Q-Chem 5.3 (devel), Q-Chem, Inc., Pleasanton, CA (2020)
 Q-Chem 5.3.0 for Intel X86 EM64T Linux

User input:
--------------------------------------------------------------
$rem
   JOBTYPE  sp
   EXCHANGE   omegaB97X-D
   BASIS   6-311+G(2df,2pd)
   UNRESTRICTED   True
   max_scf_cycles   250
   geom_opt_max_cycles   1500
   basis2 6-31G*
   scf_algorithm rca_diis
   SYM_IGNORE  TRUE
   print_input   true
   geom_opt_dmax   80
   pop_mulliken false
   XC_GRID 000075000302
$end

$molecule
0 3
N       0.6741058264     1.1927417910     2.4763183853
O       0.3766099747     2.2004305707     1.8479590456
O       1.6207155188     0.9814662321     3.2063869195
N       0.0343525022     -1.1498917040     3.1394148993
O       -0.4759147449     -1.3255520852     4.1733167223
O       -0.2848779471     0.1957943053     2.2569039180
$end
--------------------------------------------------------------

             Standard Nuclear Orientation (Angstroms)
    I     Atom           X                Y                Z
 ----------------------------------------------------------------
    1      N       0.6741058264     1.1927417910     2.4763183853
    2      O       0.3766099747     2.2004305707     1.8479590456
    3      O       1.6207155188     0.9814662321     3.2063869195
    4      N       0.0343525022    -1.1498917040     3.1394148993
    5      O      -0.4759147449    -1.3255520852     4.1733167223
    6      O      -0.2848779471     0.1957943053     2.2569039180
 ----------------------------------------------------------------

    8    -409.9248462404      8.95E-05 Convergence criterion met
   10    -410.0786543414      9.96E-06 Convergence criterion met
 Total energy in the final basis set = -410.07865434

                    Orbital Energies (a.u.)
 --------------------------------------------------------------

 Alpha MOs
 -- Occupied --
-19.4235 -19.4050 -19.3493 -19.3476 -14.7735 -14.6251  -1.4250  -1.3747
 -1.2351  -1.2143  -0.8816  -0.7820  -0.7173  -0.7066  -0.6877  -0.6553
 -0.6365  -0.6337  -0.5033  -0.5005  -0.4610  -0.4569  -0.4378  -0.3446

 Beta MOs
 -- Occupied --
-19.4103 -19.3871 -19.3481 -19.3469 -14.7734 -14.6069  -1.4184  -1.3372
 -1.2317  -1.1832  -0.8378  -0.7478  -0.7037  -0.7005  -0.6694  -0.6059
 -0.5875  -0.5624  -0.4835  -0.4714  -0.4555  -0.4411

                    Cartesian Multipole Moments
 -----------------------------------------------------------------
    Charge (ESU x 10^10)
                -0.0000
    Dipole Moment (Debye)
         X      -0.4293      Y      -1.1025      Z       0.1219
       Tot       1.1894
    Quadrupole Moments (Debye-Ang)
        XX     -33.3021     XY      -1.2055     YY     -33.8826
        XZ      -2.3677     YZ      -1.7340     ZZ     -31.9507

 Total job time:  15.42s(wall), 82.40s(cpu)
        *  Thank you very much for using Q-Chem.  Have a nice day.  *
