 Q-Chem 5.3 (devel), Q-Chem, Inc., Pleasanton, CA (2020)
 Q-Chem 5.3.0 for Intel X86 EM64T Linux

User input:
--------------------------------------------------------------
$rem
   JOBTYPE  sp
   EXCHANGE   omegaB97X-D
   BASIS   6-311+G(2df,2pd)
   UNRESTRICTED   True
   max_scf_cycles   250
   geom_opt_max_cycles   1500
   basis2 6-31G*
   scf_algorithm rca_diis
   SYM_IGNORE  TRUE
   print_input   true
   geom_opt_dmax   80
   pop_mulliken false
   XC_GRID 000075000302
$end

$molecule
0 3
N       0.6032145755     1.1411387291     2.4800759722
O       0.4550042547     2.1890022693     1.9326597777
O       1.4197477686     0.7641103555     3.2529353080
N       0.1635449629     -1.0286660766     3.1393824015
O       -0.3365250067     -1.1668149596     4.1776372013
O       -0.3599954249     0.1962187923     2.1176092293
$end
--------------------------------------------------------------

             Standard Nuclear Orientation (Angstroms)
    I     Atom           X                Y                Z
 ----------------------------------------------------------------
    1      N       0.6032145755     1.1411387291     2.4800759722
    2      O       0.4550042547     2.1890022693     1.9326597777
    3      O       1.4197477686     0.7641103555     3.2529353080
    4      N       0.1635449629    -1.0286660766     3.1393824015
    5      O      -0.3365250067    -1.1668149596     4.1776372013
    6      O      -0.3599954249     0.1962187923     2.1176092293
 ----------------------------------------------------------------

    7    -409.9111800485      9.21E-05 Convergence criterion met
   10    -410.0666222963      5.71E-06 Convergence criterion met
 Total energy in the final basis set = -410.06662230

                    Orbital Energies (a.u.)
 --------------------------------------------------------------

 Alpha MOs
 -- Occupied --
-19.4160 -19.4001 -19.3451 -19.3391 -14.7706 -14.6171  -1.4480  -1.3740
 -1.2559  -1.2159  -0.8618  -0.7800  -0.7232  -0.7208  -0.6932  -0.6579
 -0.6368  -0.6319  -0.5004  -0.4951  -0.4612  -0.4575  -0.4459  -0.3293

 Beta MOs
 -- Occupied --
-19.4016 -19.3834 -19.3436 -19.3388 -14.7705 -14.5981  -1.4420  -1.3380
 -1.2531  -1.1817  -0.8149  -0.7453  -0.7178  -0.7089  -0.6727  -0.6151
 -0.5855  -0.5635  -0.4804  -0.4701  -0.4598  -0.4357

                    Cartesian Multipole Moments
 -----------------------------------------------------------------
    Charge (ESU x 10^10)
                -0.0000
    Dipole Moment (Debye)
         X      -0.3025      Y      -0.9377      Z       0.0403
       Tot       0.9861
    Quadrupole Moments (Debye-Ang)
        XX     -32.6917     XY      -1.3528     YY     -33.8473
        XZ      -1.9401     YZ      -1.5139     ZZ     -32.3864

 Total job time:  16.24s(wall), 86.54s(cpu)
        *  Thank you very much for using Q-Chem.  Have a nice day.  *
