 Q-Chem 5.3 (devel), Q-Chem, Inc., Pleasanton, CA (2020)
 Q-Chem 5.3.0 for Intel X86 EM64T Linux

User input:
--------------------------------------------------------------
$rem
   JOBTYPE  sp
   EXCHANGE   omegaB97X-D
   BASIS   6-311+G(2df,2pd)
   UNRESTRICTED   True
   max_scf_cycles   250
   geom_opt_max_cycles   1500
   basis2 6-31G*
   scf_algorithm rca_diis
   SYM_IGNORE  TRUE
   print_input   true
   geom_opt_dmax   80
   pop_mulliken false
   XC_GRID 000075000302
$end

$molecule
0 3
N       0.7142438245     1.2453898482     2.4802487195
O       0.3891573788     2.1391877521     1.8841038249
O       1.5663256315     0.9898660148     3.1644378856
N       0.0369552384     -1.1541233508     3.1388619995
O       -0.4798344908     -1.3269090422     4.1772128816
O       -0.2818564524     0.2015778878     2.2554345790
$end
--------------------------------------------------------------

             Standard Nuclear Orientation (Angstroms)
    I     Atom           X                Y                Z
 ----------------------------------------------------------------
    1      N       0.7142438245     1.2453898482     2.4802487195
    2      O       0.3891573788     2.1391877521     1.8841038249
    3      O       1.5663256315     0.9898660148     3.1644378856
    4      N       0.0369552384    -1.1541233508     3.1388619995
    5      O      -0.4798344908    -1.3269090422     4.1772128816
    6      O      -0.2818564524     0.2015778878     2.2554345790
 ----------------------------------------------------------------

    7    -409.9065099231      7.09E-05 Convergence criterion met
    9    -410.0669686969      5.18E-06 Convergence criterion met
 Total energy in the final basis set = -410.06696870

                    Orbital Energies (a.u.)
 --------------------------------------------------------------

 Alpha MOs
 -- Occupied --
-19.3889 -19.3874 -19.3536 -19.3501 -14.7732 -14.6097  -1.4961  -1.3561
 -1.3182  -1.1891  -0.8613  -0.7687  -0.7517  -0.7310  -0.6903  -0.6532
 -0.6293  -0.6225  -0.5016  -0.4865  -0.4804  -0.4651  -0.4329  -0.3312

 Beta MOs
 -- Occupied --
-19.3741 -19.3710 -19.3517 -19.3504 -14.7729 -14.5919  -1.4933  -1.3187
 -1.3153  -1.1535  -0.8186  -0.7504  -0.7402  -0.7143  -0.6854  -0.5987
 -0.5726  -0.5504  -0.4832  -0.4716  -0.4618  -0.4576

                    Cartesian Multipole Moments
 -----------------------------------------------------------------
    Charge (ESU x 10^10)
                 0.0000
    Dipole Moment (Debye)
         X       0.2033      Y      -0.0841      Z       0.0095
       Tot       0.2202
    Quadrupole Moments (Debye-Ang)
        XX     -32.4765     XY      -0.4765     YY     -32.3582
        XZ      -0.6533     YZ       0.9721     ZZ     -32.4341

 Total job time:  13.63s(wall), 71.73s(cpu)
        *  Thank you very much for using Q-Chem.  Have a nice day.  *
