 Q-Chem 5.3 (devel), Q-Chem, Inc., Pleasanton, CA (2020)
 Q-Chem 5.3.0 for Intel X86 EM64T Linux

User input:
--------------------------------------------------------------
$rem
   JOBTYPE  sp
   EXCHANGE   omegaB97X-D
   BASIS   6-311+G(2df,2pd)
   UNRESTRICTED   True
   max_scf_cycles   250
   geom_opt_max_cycles   1500
   basis2 6-31G*
   scf_algorithm rca_diis
   SYM_IGNORE  TRUE
   print_input   true
   geom_opt_dmax   80
   pop_mulliken false
   XC_GRID 000075000302
$end

$molecule
0 3
N       0.6807998607     1.1768077265     2.4978591376
O       0.3209897639     2.1482998684     1.9026407348
O       1.6274165054     0.9681744463     3.1798399377
N       0.0864951077     -1.2003337873     3.1199415144
O       -0.5098199593     -1.1944454570     4.1232334228
O       -0.2608901483     0.1964863130     2.2767851427
$end
--------------------------------------------------------------

             Standard Nuclear Orientation (Angstroms)
    I     Atom           X                Y                Z
 ----------------------------------------------------------------
    1      N       0.6807998607     1.1768077265     2.4978591376
    2      O       0.3209897639     2.1482998684     1.9026407348
    3      O       1.6274165054     0.9681744463     3.1798399377
    4      N       0.0864951077    -1.2003337873     3.1199415144
    5      O      -0.5098199593    -1.1944454570     4.1232334228
    6      O      -0.2608901483     0.1964863130     2.2767851427
 ----------------------------------------------------------------

    8    -409.9233165326      6.79E-05 Convergence criterion met
   11    -410.0785065902      7.88E-06 Convergence criterion met
 Total energy in the final basis set = -410.07850659

                    Orbital Energies (a.u.)
 --------------------------------------------------------------

 Alpha MOs
 -- Occupied --
-19.4154 -19.4020 -19.3512 -19.3481 -14.7768 -14.6122  -1.4527  -1.3732
 -1.2623  -1.2156  -0.8710  -0.7804  -0.7247  -0.7215  -0.6903  -0.6557
 -0.6332  -0.6279  -0.5113  -0.4981  -0.4670  -0.4651  -0.4416  -0.3379

 Beta MOs
 -- Occupied --
-19.4020 -19.3834 -19.3485 -19.3478 -14.7768 -14.5961  -1.4465  -1.3355
 -1.2584  -1.1836  -0.8284  -0.7468  -0.7219  -0.7065  -0.6752  -0.6020
 -0.5824  -0.5589  -0.4800  -0.4732  -0.4621  -0.4461

                    Cartesian Multipole Moments
 -----------------------------------------------------------------
    Charge (ESU x 10^10)
                -0.0000
    Dipole Moment (Debye)
         X      -0.2614      Y      -0.8163      Z       0.1023
       Tot       0.8633
    Quadrupole Moments (Debye-Ang)
        XX     -33.2163     XY      -0.8427     YY     -33.3771
        XZ      -1.8640     YZ      -1.2860     ZZ     -31.7287

 Total job time:  16.82s(wall), 90.62s(cpu)
        *  Thank you very much for using Q-Chem.  Have a nice day.  *
