 Q-Chem 5.3 (devel), Q-Chem, Inc., Pleasanton, CA (2020)
 Q-Chem 5.3.0 for Intel X86 EM64T Linux

User input:
--------------------------------------------------------------
$rem
   JOBTYPE  sp
   EXCHANGE   omegaB97X-D
   BASIS   6-311+G(2df,2pd)
   UNRESTRICTED   True
   max_scf_cycles   250
   geom_opt_max_cycles   1500
   basis2 6-31G*
   scf_algorithm rca_diis
   SYM_IGNORE  TRUE
   print_input   true
   geom_opt_dmax   80
   pop_mulliken false
   XC_GRID 000075000302
$end

$molecule
0 3
N       0.3411782346     1.5006162078     3.0643366619
O       0.1304488399     2.1910564280     1.9604875655
O       2.1645280233     0.9540354582     2.5108087897
N       0.3131249734     -1.1006834132     3.4887118427
O       -1.1574071939     -1.3649453265     4.0334867599
O       0.1531182528     -0.0850902444     2.0424682703
$end
--------------------------------------------------------------

             Standard Nuclear Orientation (Angstroms)
    I     Atom           X                Y                Z
 ----------------------------------------------------------------
    1      N       0.3411782346     1.5006162078     3.0643366619
    2      O       0.1304488399     2.1910564280     1.9604875655
    3      O       2.1645280233     0.9540354582     2.5108087897
    4      N       0.3131249734    -1.1006834132     3.4887118427
    5      O      -1.1574071939    -1.3649453265     4.0334867599
    6      O       0.1531182528    -0.0850902444     2.0424682703
 ----------------------------------------------------------------

   28    -409.6055155042      9.85E-05 Convergence criterion met
   21    -409.7511686655      7.92E-06 Convergence criterion met
 Total energy in the final basis set = -409.75116867

                    Orbital Energies (a.u.)
 --------------------------------------------------------------

 Alpha MOs
 -- Occupied --
-19.4241 -19.4083 -19.3824 -19.3767 -14.7108 -14.6864  -1.2807  -1.1554
 -1.1349  -1.0835  -0.8567  -0.8465  -0.6339  -0.6130  -0.6031  -0.5762
 -0.5476  -0.5356  -0.5195  -0.4932  -0.4836  -0.4542  -0.4334  -0.4227

 Beta MOs
 -- Occupied --
-19.4113 -19.3832 -19.3795 -19.3587 -14.7142 -14.6896  -1.2848  -1.1316
 -1.0536  -0.9955  -0.8619  -0.8504  -0.6146  -0.6088  -0.5949  -0.5482
 -0.5238  -0.4904  -0.4360  -0.4269  -0.4157  -0.4058

                    Cartesian Multipole Moments
 -----------------------------------------------------------------
    Charge (ESU x 10^10)
                -0.0000
    Dipole Moment (Debye)
         X       1.0622      Y       1.0864      Z       0.6354
       Tot       1.6469
    Quadrupole Moments (Debye-Ang)
        XX     -32.4489     XY      -0.4871     YY     -31.2714
        XZ       4.3650     YZ       4.7363     ZZ     -30.5120

 Total job time:  28.87s(wall), 163.63s(cpu)
        *  Thank you very much for using Q-Chem.  Have a nice day.  *
