 Q-Chem 5.3 (devel), Q-Chem, Inc., Pleasanton, CA (2020)
 Q-Chem 5.3.0 for Intel X86 EM64T Linux

User input:
--------------------------------------------------------------
$rem
   JOBTYPE  sp
   EXCHANGE   omegaB97X-D
   BASIS   6-311+G(2df,2pd)
   UNRESTRICTED   True
   max_scf_cycles   250
   geom_opt_max_cycles   1500
   basis2 6-31G*
   scf_algorithm rca_diis
   SYM_IGNORE  TRUE
   print_input   true
   geom_opt_dmax   80
   pop_mulliken false
   XC_GRID 000075000302
$end

$molecule
0 3
N       0.6484477935     1.3417273053     2.4195818388
O       0.5189170751     2.4031552479     1.9381612758
O       1.5408462756     0.9981780003     3.0768456004
N       0.1114979053     -1.3672702587     3.1813964698
O       -0.5566533513     -1.2134211993     4.1503515893
O       -0.3180645681     -0.0673799855     2.3339631158
$end
--------------------------------------------------------------

             Standard Nuclear Orientation (Angstroms)
    I     Atom           X                Y                Z
 ----------------------------------------------------------------
    1      N       0.6484477935     1.3417273053     2.4195818388
    2      O       0.5189170751     2.4031552479     1.9381612758
    3      O       1.5408462756     0.9981780003     3.0768456004
    4      N       0.1114979053    -1.3672702587     3.1813964698
    5      O      -0.5566533513    -1.2134211993     4.1503515893
    6      O      -0.3180645681    -0.0673799855     2.3339631158
 ----------------------------------------------------------------

    9    -409.8721702345      6.48E-05 Convergence criterion met
   13    -410.0283334217      5.90E-06 Convergence criterion met
 Total energy in the final basis set = -410.02833342

                    Orbital Energies (a.u.)
 --------------------------------------------------------------

 Alpha MOs
 -- Occupied --
-19.4105 -19.3816 -19.3699 -19.3449 -14.7501 -14.6169  -1.4441  -1.3706
 -1.2630  -1.1376  -0.8477  -0.7799  -0.7164  -0.7076  -0.6753  -0.6574
 -0.6391  -0.6232  -0.4912  -0.4748  -0.4627  -0.4579  -0.4388  -0.3326

 Beta MOs
 -- Occupied --
-19.3895 -19.3690 -19.3677 -19.3450 -14.7477 -14.6050  -1.4404  -1.3301
 -1.2594  -1.0942  -0.8077  -0.7518  -0.7046  -0.7026  -0.6707  -0.5960
 -0.5799  -0.5664  -0.4709  -0.4580  -0.4414  -0.4286

                    Cartesian Multipole Moments
 -----------------------------------------------------------------
    Charge (ESU x 10^10)
                 0.0000
    Dipole Moment (Debye)
         X      -0.1616      Y      -0.2931      Z       0.1615
       Tot       0.3717
    Quadrupole Moments (Debye-Ang)
        XX     -33.2194     XY      -0.2532     YY     -31.9498
        XZ      -1.4225     YZ      -0.7670     ZZ     -30.7365

 Total job time:  17.57s(wall), 95.79s(cpu)
        *  Thank you very much for using Q-Chem.  Have a nice day.  *
