 Q-Chem 5.3 (devel), Q-Chem, Inc., Pleasanton, CA (2020)
 Q-Chem 5.3.0 for Intel X86 EM64T Linux

User input:
--------------------------------------------------------------
$rem
   JOBTYPE  sp
   EXCHANGE   omegaB97X-D
   BASIS   6-311+G(2df,2pd)
   UNRESTRICTED   True
   max_scf_cycles   250
   geom_opt_max_cycles   1500
   basis2 6-31G*
   scf_algorithm rca_diis
   SYM_IGNORE  TRUE
   print_input   true
   geom_opt_dmax   80
   pop_mulliken false
   XC_GRID 000075000302
$end

$molecule
0 3
N       0.6877539257     1.2105143434     2.4777162057
O       0.3799464281     2.1800146099     1.8595030004
O       1.6027221962     0.9832628380     3.1929848041
N       0.0353553176     -1.1510459660     3.1391660238
O       -0.4771174168     -1.3257843361     4.1745324610
O       -0.2836693207     0.1980276207     2.2563973950
$end
--------------------------------------------------------------

             Standard Nuclear Orientation (Angstroms)
    I     Atom           X                Y                Z
 ----------------------------------------------------------------
    1      N       0.6877539257     1.2105143434     2.4777162057
    2      O       0.3799464281     2.1800146099     1.8595030004
    3      O       1.6027221962     0.9832628380     3.1929848041
    4      N       0.0353553176    -1.1510459660     3.1391660238
    5      O      -0.4771174168    -1.3257843361     4.1745324610
    6      O      -0.2836693207     0.1980276207     2.2563973950
 ----------------------------------------------------------------

    7    -409.9262520368      9.37E-05 Convergence criterion met
   10    -410.0815617537      5.54E-06 Convergence criterion met
 Total energy in the final basis set = -410.08156175

                    Orbital Energies (a.u.)
 --------------------------------------------------------------

 Alpha MOs
 -- Occupied --
-19.4123 -19.4000 -19.3503 -19.3483 -14.7737 -14.6206  -1.4450  -1.3694
 -1.2600  -1.2082  -0.8744  -0.7772  -0.7202  -0.7186  -0.6862  -0.6561
 -0.6335  -0.6326  -0.5017  -0.4974  -0.4648  -0.4618  -0.4381  -0.3406

 Beta MOs
 -- Occupied --
-19.3991 -19.3821 -19.3486 -19.3481 -14.7735 -14.6025  -1.4403  -1.3313
 -1.2575  -1.1747  -0.8306  -0.7446  -0.7164  -0.7046  -0.6735  -0.6044
 -0.5833  -0.5586  -0.4788  -0.4715  -0.4629  -0.4476

                    Cartesian Multipole Moments
 -----------------------------------------------------------------
    Charge (ESU x 10^10)
                -0.0000
    Dipole Moment (Debye)
         X      -0.2390      Y      -0.7941      Z       0.0891
       Tot       0.8341
    Quadrupole Moments (Debye-Ang)
        XX     -33.0509     XY      -0.9872     YY     -33.4249
        XZ      -1.8552     YZ      -0.9140     ZZ     -32.0822

 Total job time:  15.49s(wall), 82.70s(cpu)
        *  Thank you very much for using Q-Chem.  Have a nice day.  *
