 Q-Chem 5.3 (devel), Q-Chem, Inc., Pleasanton, CA (2020)
 Q-Chem 5.3.0 for Intel X86 EM64T Linux

User input:
--------------------------------------------------------------
$rem
   JOBTYPE  sp
   EXCHANGE   omegaB97X-D
   BASIS   6-311+G(2df,2pd)
   UNRESTRICTED   True
   max_scf_cycles   250
   geom_opt_max_cycles   1500
   basis2 6-31G*
   scf_algorithm rca_diis
   SYM_IGNORE  TRUE
   print_input   true
   geom_opt_dmax   80
   pop_mulliken false
   XC_GRID 000075000302
$end

$molecule
0 3
N       0.6648478999     1.2930983435     2.4447108204
O       0.4636712032     2.3236380167     1.9078569472
O       1.5713791265     0.9949801656     3.1199961171
N       0.0855446598     -1.2869832183     3.1626705166
O       -0.5329247782     -1.2581815338     4.1672884132
O       -0.3075269811     0.0284373362     2.2977770756
$end
--------------------------------------------------------------

             Standard Nuclear Orientation (Angstroms)
    I     Atom           X                Y                Z
 ----------------------------------------------------------------
    1      N       0.6648478999     1.2930983435     2.4447108204
    2      O       0.4636712032     2.3236380167     1.9078569472
    3      O       1.5713791265     0.9949801656     3.1199961171
    4      N       0.0855446598    -1.2869832183     3.1626705166
    5      O      -0.5329247782    -1.2581815338     4.1672884132
    6      O      -0.3075269811     0.0284373362     2.2977770756
 ----------------------------------------------------------------

    8    -409.9010537002      8.81E-05 Convergence criterion met
   10    -410.0568142051      7.77E-06 Convergence criterion met
 Total energy in the final basis set = -410.05681421

                    Orbital Energies (a.u.)
 --------------------------------------------------------------

 Alpha MOs
 -- Occupied --
-19.4019 -19.3924 -19.3661 -19.3485 -14.7639 -14.6172  -1.4409  -1.3659
 -1.2628  -1.1606  -0.8570  -0.7780  -0.7179  -0.7100  -0.6780  -0.6563
 -0.6349  -0.6276  -0.4931  -0.4782  -0.4683  -0.4590  -0.4460  -0.3373

 Beta MOs
 -- Occupied --
-19.3818 -19.3797 -19.3648 -19.3489 -14.7629 -14.6018  -1.4387  -1.3255
 -1.2610  -1.1206  -0.8177  -0.7468  -0.7086  -0.7044  -0.6737  -0.5965
 -0.5786  -0.5596  -0.4706  -0.4640  -0.4544  -0.4425

                    Cartesian Multipole Moments
 -----------------------------------------------------------------
    Charge (ESU x 10^10)
                 0.0000
    Dipole Moment (Debye)
         X      -0.1112      Y      -0.3610      Z       0.1059
       Tot       0.3923
    Quadrupole Moments (Debye-Ang)
        XX     -33.0726     XY      -0.6027     YY     -32.3254
        XZ      -1.3387     YZ      -0.4394     ZZ     -31.6273

 Total job time:  14.87s(wall), 79.52s(cpu)
        *  Thank you very much for using Q-Chem.  Have a nice day.  *
