 Q-Chem 5.3 (devel), Q-Chem, Inc., Pleasanton, CA (2020)
 Q-Chem 5.3.0 for Intel X86 EM64T Linux

User input:
--------------------------------------------------------------
$rem
   JOBTYPE  sp
   EXCHANGE   omegaB97X-D
   BASIS   6-311+G(2df,2pd)
   UNRESTRICTED   True
   max_scf_cycles   250
   geom_opt_max_cycles   1500
   basis2 6-31G*
   scf_algorithm rca_diis
   SYM_IGNORE  TRUE
   print_input   true
   geom_opt_dmax   80
   pop_mulliken false
   XC_GRID 000075000302
$end

$molecule
0 3
N       0.6892696058     1.2000914476     2.4802521533
O       0.3619079627     2.1879349807     1.8788229896
O       1.6111929078     0.9797208021     3.1819391653
N       0.0758932942     -1.1477476573     3.0805161424
O       -0.5234442117     -1.3198938207     4.2439805093
O       -0.2698284288     0.1948833573     2.2347889301
$end
--------------------------------------------------------------

             Standard Nuclear Orientation (Angstroms)
    I     Atom           X                Y                Z
 ----------------------------------------------------------------
    1      N       0.6892696058     1.2000914476     2.4802521533
    2      O       0.3619079627     2.1879349807     1.8788229896
    3      O       1.6111929078     0.9797208021     3.1819391653
    4      N       0.0758932942    -1.1477476573     3.0805161424
    5      O      -0.5234442117    -1.3198938207     4.2439805093
    6      O      -0.2698284288     0.1948833573     2.2347889301
 ----------------------------------------------------------------

   10    -409.9063790298      5.74E-05 Convergence criterion met
   11    -410.0584574739      6.63E-06 Convergence criterion met
 Total energy in the final basis set = -410.05845747

                    Orbital Energies (a.u.)
 --------------------------------------------------------------

 Alpha MOs
 -- Occupied --
-19.4238 -19.4150 -19.3534 -19.3491 -14.7780 -14.6402  -1.4468  -1.2871
 -1.2605  -1.2084  -0.9006  -0.7836  -0.7212  -0.7195  -0.6846  -0.6383
 -0.6055  -0.5997  -0.5074  -0.4984  -0.4711  -0.4649  -0.4447  -0.3866

 Beta MOs
 -- Occupied --
-19.4147 -19.3925 -19.3537 -19.3474 -14.7778 -14.6226  -1.4432  -1.2582
 -1.2412  -1.1789  -0.8518  -0.7550  -0.7195  -0.7074  -0.6755  -0.5927
 -0.5520  -0.5132  -0.4782  -0.4768  -0.4622  -0.4469

                    Cartesian Multipole Moments
 -----------------------------------------------------------------
    Charge (ESU x 10^10)
                -0.0000
    Dipole Moment (Debye)
         X      -0.1949      Y      -0.6696      Z      -0.0009
       Tot       0.6974
    Quadrupole Moments (Debye-Ang)
        XX     -33.1619     XY      -0.8615     YY     -34.2605
        XZ      -1.8188     YZ      -0.3352     ZZ     -32.6221

 Total job time:  16.81s(wall), 90.62s(cpu)
        *  Thank you very much for using Q-Chem.  Have a nice day.  *
