 Q-Chem 5.3 (devel), Q-Chem, Inc., Pleasanton, CA (2020)
 Q-Chem 5.3.0 for Intel X86 EM64T Linux

User input:
--------------------------------------------------------------
$rem
   JOBTYPE  sp
   EXCHANGE   omegaB97X-D
   BASIS   6-311+G(2df,2pd)
   UNRESTRICTED   True
   max_scf_cycles   250
   geom_opt_max_cycles   1500
   basis2 6-31G*
   scf_algorithm rca_diis
   SYM_IGNORE  TRUE
   print_input   true
   geom_opt_dmax   80
   pop_mulliken false
   XC_GRID 000075000302
$end

$molecule
0 3
N       0.3018848595     1.5354005563     3.1323635665
O       0.1034498152     2.1912312718     1.9692268564
O       2.2278808126     0.9485653218     2.4351623435
N       0.3430942533     -1.0899163726     3.5310901994
O       -1.2316919682     -1.3762862614     4.0199474169
O       0.2003733577     -0.1140054060     2.0125095074
$end
--------------------------------------------------------------

             Standard Nuclear Orientation (Angstroms)
    I     Atom           X                Y                Z
 ----------------------------------------------------------------
    1      N       0.3018848595     1.5354005563     3.1323635665
    2      O       0.1034498152     2.1912312718     1.9692268564
    3      O       2.2278808126     0.9485653218     2.4351623435
    4      N       0.3430942533    -1.0899163726     3.5310901994
    5      O      -1.2316919682    -1.3762862614     4.0199474169
    6      O       0.2003733577    -0.1140054060     2.0125095074
 ----------------------------------------------------------------

   59    -409.5430929315      8.99E-05 Convergence criterion met
   28    -409.6896955638      8.20E-06 Convergence criterion met
 Total energy in the final basis set = -409.68969556

                    Orbital Energies (a.u.)
 --------------------------------------------------------------

 Alpha MOs
 -- Occupied --
-19.4163 -19.4121 -19.3836 -19.3833 -14.6984 -14.6798  -1.2542  -1.1475
 -1.1221  -1.0778  -0.8603  -0.8437  -0.6186  -0.5986  -0.5870  -0.5706
 -0.5418  -0.5314  -0.5110  -0.4897  -0.4808  -0.4551  -0.4430  -0.4264

 Beta MOs
 -- Occupied --
-19.4195 -19.3852 -19.3706 -19.3568 -14.7038 -14.6853  -1.2672  -1.1088
 -1.0360  -0.9798  -0.8682  -0.8615  -0.6054  -0.6036  -0.5834  -0.5359
 -0.5182  -0.4788  -0.4369  -0.4288  -0.4126  -0.3964

                    Cartesian Multipole Moments
 -----------------------------------------------------------------
    Charge (ESU x 10^10)
                -0.0000
    Dipole Moment (Debye)
         X       0.9857      Y       1.1157      Z       0.5734
       Tot       1.5953
    Quadrupole Moments (Debye-Ang)
        XX     -32.5807     XY      -0.7373     YY     -31.3241
        XZ       4.1078     YZ       4.6626     ZZ     -30.6371

 Total job time:  40.08s(wall), 230.99s(cpu)
        *  Thank you very much for using Q-Chem.  Have a nice day.  *
