 Q-Chem 5.3 (devel), Q-Chem, Inc., Pleasanton, CA (2020)
 Q-Chem 5.3.0 for Intel X86 EM64T Linux

User input:
--------------------------------------------------------------
$rem
   JOBTYPE  sp
   EXCHANGE   omegaB97X-D
   BASIS   6-311+G(2df,2pd)
   UNRESTRICTED   True
   max_scf_cycles   250
   geom_opt_max_cycles   1500
   basis2 6-31G*
   scf_algorithm rca_diis
   SYM_IGNORE  TRUE
   print_input   true
   geom_opt_dmax   80
   pop_mulliken false
   XC_GRID 000075000302
$end

$molecule
0 3
N       0.6169435112     1.1195801669     2.4700896792
O       0.3718181665     2.2814738079     1.8072487160
O       1.6908838974     0.9844329250     3.2536312868
N       0.0291083429     -1.1476940691     3.1410825078
O       -0.4722502731     -1.3267228193     4.1691913800
O       -0.2915125147     0.1839190984     2.2590563201
$end
--------------------------------------------------------------

             Standard Nuclear Orientation (Angstroms)
    I     Atom           X                Y                Z
 ----------------------------------------------------------------
    1      N       0.6169435112     1.1195801669     2.4700896792
    2      O       0.3718181665     2.2814738079     1.8072487160
    3      O       1.6908838974     0.9844329250     3.2536312868
    4      N       0.0291083429    -1.1476940691     3.1410825078
    5      O      -0.4722502731    -1.3267228193     4.1691913800
    6      O      -0.2915125147     0.1839190984     2.2590563201
 ----------------------------------------------------------------

   10    -409.8743027635      7.41E-05 Convergence criterion met
   17    -410.0266860155      8.21E-06 Convergence criterion met
 Total energy in the final basis set = -410.02668602

                    Orbital Energies (a.u.)
 --------------------------------------------------------------

 Alpha MOs
 -- Occupied --
-19.4588 -19.4198 -19.3478 -19.3468 -14.7696 -14.6401  -1.4090  -1.3754
 -1.2129  -1.1478  -0.9108  -0.8002  -0.7206  -0.6984  -0.6900  -0.6573
 -0.6421  -0.6201  -0.5052  -0.4987  -0.4592  -0.4328  -0.4262  -0.3562

 Beta MOs
 -- Occupied --
-19.4461 -19.4021 -19.3475 -19.3441 -14.7697 -14.6213  -1.3818  -1.3486
 -1.1957  -1.1418  -0.8682  -0.7612  -0.6951  -0.6789  -0.6668  -0.6021
 -0.5940  -0.5757  -0.4904  -0.4613  -0.4307  -0.4182

                    Cartesian Multipole Moments
 -----------------------------------------------------------------
    Charge (ESU x 10^10)
                 0.0000
    Dipole Moment (Debye)
         X      -1.0584      Y      -2.0600      Z       0.2033
       Tot       2.3249
    Quadrupole Moments (Debye-Ang)
        XX     -34.1013     XY      -1.8618     YY     -35.2788
        XZ      -4.0477     YZ      -4.3190     ZZ     -31.6765

 Total job time:  23.81s(wall), 132.73s(cpu)
        *  Thank you very much for using Q-Chem.  Have a nice day.  *
