 Q-Chem 5.3 (devel), Q-Chem, Inc., Pleasanton, CA (2020)
 Q-Chem 5.3.0 for Intel X86 EM64T Linux

User input:
--------------------------------------------------------------
$rem
   JOBTYPE  sp
   EXCHANGE   omegaB97X-D
   BASIS   6-311+G(2df,2pd)
   UNRESTRICTED   True
   max_scf_cycles   250
   geom_opt_max_cycles   1500
   basis2 6-31G*
   scf_algorithm rca_diis
   SYM_IGNORE  TRUE
   print_input   true
   geom_opt_dmax   80
   pop_mulliken false
   XC_GRID 000075000302
$end

$molecule
0 3
N       0.5827975833     1.1210409639     2.4801371506
O       0.4717307309     2.1863764304     1.9575613427
O       1.3710002980     0.7076565741     3.2646893654
N       0.1963732748     -0.9926675750     3.1380679115
O       -0.3011588069     -1.1214255433     4.1765903957
O       -0.3757519499     0.1940082598     2.0832537241
$end
--------------------------------------------------------------

             Standard Nuclear Orientation (Angstroms)
    I     Atom           X                Y                Z
 ----------------------------------------------------------------
    1      N       0.5827975833     1.1210409639     2.4801371506
    2      O       0.4717307309     2.1863764304     1.9575613427
    3      O       1.3710002980     0.7076565741     3.2646893654
    4      N       0.1963732748    -0.9926675750     3.1380679115
    5      O      -0.3011588069    -1.1214255433     4.1765903957
    6      O      -0.3757519499     0.1940082598     2.0832537241
 ----------------------------------------------------------------

    8    -409.8992953405      7.40E-05 Convergence criterion met
    9    -410.0549781361      9.00E-06 Convergence criterion met
 Total energy in the final basis set = -410.05497814

                    Orbital Energies (a.u.)
 --------------------------------------------------------------

 Alpha MOs
 -- Occupied --
-19.4153 -19.3976 -19.3447 -19.3387 -14.7705 -14.6162  -1.4508  -1.3738
 -1.2572  -1.2168  -0.8591  -0.7803  -0.7284  -0.7226  -0.6949  -0.6583
 -0.6354  -0.6297  -0.5003  -0.4944  -0.4619  -0.4562  -0.4482  -0.3214

 Beta MOs
 -- Occupied --
-19.4009 -19.3817 -19.3433 -19.3377 -14.7704 -14.5964  -1.4442  -1.3388
 -1.2537  -1.1831  -0.8114  -0.7455  -0.7194  -0.7117  -0.6740  -0.6163
 -0.5853  -0.5650  -0.4806  -0.4705  -0.4600  -0.4308

                    Cartesian Multipole Moments
 -----------------------------------------------------------------
    Charge (ESU x 10^10)
                -0.0000
    Dipole Moment (Debye)
         X      -0.2404      Y      -0.9157      Z       0.0108
       Tot       0.9468
    Quadrupole Moments (Debye-Ang)
        XX     -32.5425     XY      -1.4309     YY     -33.9522
        XZ      -1.7210     YZ      -1.4795     ZZ     -32.5966

 Total job time:  14.87s(wall), 78.09s(cpu)
        *  Thank you very much for using Q-Chem.  Have a nice day.  *
