 Q-Chem 5.3 (devel), Q-Chem, Inc., Pleasanton, CA (2020)
 Q-Chem 5.3.0 for Intel X86 EM64T Linux

User input:
--------------------------------------------------------------
$rem
   JOBTYPE  sp
   EXCHANGE   omegaB97X-D
   BASIS   6-311+G(2df,2pd)
   UNRESTRICTED   True
   max_scf_cycles   250
   geom_opt_max_cycles   1500
   basis2 6-31G*
   scf_algorithm rca_diis
   SYM_IGNORE  TRUE
   print_input   true
   geom_opt_dmax   80
   pop_mulliken false
   XC_GRID 000075000302
$end

$molecule
0 3
N       0.6580360980     1.0821848419     2.5564836941
O       0.1834284079     2.0458875346     2.0083514149
O       1.6712213876     0.9264537736     3.1603580807
N       0.1759748259     -1.3133083263     3.1126764601
O       -0.5238632013     -0.8351617857     3.9105023411
O       -0.2198063880     0.1889330719     2.3519278991
$end
--------------------------------------------------------------

             Standard Nuclear Orientation (Angstroms)
    I     Atom           X                Y                Z
 ----------------------------------------------------------------
    1      N       0.6580360980     1.0821848419     2.5564836941
    2      O       0.1834284079     2.0458875346     2.0083514149
    3      O       1.6712213876     0.9264537736     3.1603580807
    4      N       0.1759748259    -1.3133083263     3.1126764601
    5      O      -0.5238632013    -0.8351617857     3.9105023411
    6      O      -0.2198063880     0.1889330719     2.3519278991
 ----------------------------------------------------------------

    8    -409.8812889681      7.93E-05 Convergence criterion met
   11    -410.0369812770      3.68E-06 Convergence criterion met
 Total energy in the final basis set = -410.03698128

                    Orbital Energies (a.u.)
 --------------------------------------------------------------

 Alpha MOs
 -- Occupied --
-19.4183 -19.4024 -19.3507 -19.3473 -14.7817 -14.5993  -1.4879  -1.3904
 -1.2748  -1.2274  -0.8562  -0.8045  -0.7486  -0.7274  -0.7034  -0.6571
 -0.6275  -0.6086  -0.5312  -0.5003  -0.4681  -0.4648  -0.4332  -0.3331

 Beta MOs
 -- Occupied --
-19.4026 -19.3831 -19.3477 -19.3445 -14.7823 -14.5866  -1.4754  -1.3542
 -1.2674  -1.1985  -0.8158  -0.7687  -0.7353  -0.7162  -0.6829  -0.6032
 -0.5789  -0.5591  -0.4960  -0.4750  -0.4596  -0.4404

                    Cartesian Multipole Moments
 -----------------------------------------------------------------
    Charge (ESU x 10^10)
                -0.0000
    Dipole Moment (Debye)
         X      -0.3880      Y      -0.7867      Z       0.1186
       Tot       0.8852
    Quadrupole Moments (Debye-Ang)
        XX     -33.6772     XY      -0.3731     YY     -33.6940
        XZ      -2.1925     YZ      -1.7924     ZZ     -30.7864

 Total job time:  17.76s(wall), 95.34s(cpu)
        *  Thank you very much for using Q-Chem.  Have a nice day.  *
