 Q-Chem 5.3 (devel), Q-Chem, Inc., Pleasanton, CA (2020)
 Q-Chem 5.3.0 for Intel X86 EM64T Linux

User input:
--------------------------------------------------------------
$rem
   JOBTYPE  sp
   EXCHANGE   omegaB97X-D
   BASIS   6-311+G(2df,2pd)
   UNRESTRICTED   True
   max_scf_cycles   250
   geom_opt_max_cycles   1500
   basis2 6-31G*
   scf_algorithm rca_diis
   SYM_IGNORE  TRUE
   print_input   true
   geom_opt_dmax   80
   pop_mulliken false
   XC_GRID 000075000302
$end

$molecule
0 3
N       0.6707279448     1.2258242228     2.4595482160
O       0.3837189556     2.1690161919     1.8669988342
O       1.6143111636     0.9791625430     3.2020291827
N       0.0365657352     -1.1512875111     3.1384822929
O       -0.4785441329     -1.3263936054     4.1758152726
O       -0.2817885361     0.1986672686     2.2574260916
$end
--------------------------------------------------------------

             Standard Nuclear Orientation (Angstroms)
    I     Atom           X                Y                Z
 ----------------------------------------------------------------
    1      N       0.6707279448     1.2258242228     2.4595482160
    2      O       0.3837189556     2.1690161919     1.8669988342
    3      O       1.6143111636     0.9791625430     3.2020291827
    4      N       0.0365657352    -1.1512875111     3.1384822929
    5      O      -0.4785441329    -1.3263936054     4.1758152726
    6      O      -0.2817885361     0.1986672686     2.2574260916
 ----------------------------------------------------------------

    8    -409.9218079481      6.75E-05 Convergence criterion met
    9    -410.0774926167      9.90E-06 Convergence criterion met
 Total energy in the final basis set = -410.07749262

                    Orbital Energies (a.u.)
 --------------------------------------------------------------

 Alpha MOs
 -- Occupied --
-19.4127 -19.4003 -19.3608 -19.3345 -14.7727 -14.6215  -1.4524  -1.3676
 -1.2522  -1.2080  -0.8772  -0.7767  -0.7213  -0.7206  -0.6846  -0.6556
 -0.6320  -0.6319  -0.5047  -0.4984  -0.4608  -0.4558  -0.4389  -0.3410

 Beta MOs
 -- Occupied --
-19.3994 -19.3824 -19.3588 -19.3348 -14.7725 -14.6032  -1.4474  -1.3292
 -1.2488  -1.1762  -0.8331  -0.7443  -0.7183  -0.7048  -0.6730  -0.6018
 -0.5825  -0.5575  -0.4788  -0.4749  -0.4605  -0.4415

                    Cartesian Multipole Moments
 -----------------------------------------------------------------
    Charge (ESU x 10^10)
                -0.0000
    Dipole Moment (Debye)
         X      -0.5251      Y      -0.6135      Z      -0.1777
       Tot       0.8269
    Quadrupole Moments (Debye-Ang)
        XX     -33.6119     XY      -1.2298     YY     -32.7089
        XZ      -2.8537     YZ      -0.9192     ZZ     -33.4015

 Total job time:  14.51s(wall), 76.89s(cpu)
        *  Thank you very much for using Q-Chem.  Have a nice day.  *
