 Q-Chem 5.3 (devel), Q-Chem, Inc., Pleasanton, CA (2020)
 Q-Chem 5.3.0 for Intel X86 EM64T Linux

User input:
--------------------------------------------------------------
$rem
   JOBTYPE  sp
   EXCHANGE   omegaB97X-D
   BASIS   6-311+G(2df,2pd)
   UNRESTRICTED   True
   max_scf_cycles   250
   geom_opt_max_cycles   1500
   basis2 6-31G*
   scf_algorithm rca_diis
   SYM_IGNORE  TRUE
   print_input   true
   geom_opt_dmax   80
   pop_mulliken false
   XC_GRID 000075000302
$end

$molecule
0 3
N       0.5424829279     1.0782296029     2.4808783904
O       0.5013265309     2.1752457716     2.0154242394
O       1.2725718116     0.5929116917     3.2821769255
N       0.2629103840     -0.9139830463     3.1347106403
O       -0.2323373726     -1.0244219849     4.1721287262
O       -0.4019631516     0.1870070750     2.0149809682
$end
--------------------------------------------------------------

             Standard Nuclear Orientation (Angstroms)
    I     Atom           X                Y                Z
 ----------------------------------------------------------------
    1      N       0.5424829279     1.0782296029     2.4808783904
    2      O       0.5013265309     2.1752457716     2.0154242394
    3      O       1.2725718116     0.5929116917     3.2821769255
    4      N       0.2629103840    -0.9139830463     3.1347106403
    5      O      -0.2323373726    -1.0244219849     4.1721287262
    6      O      -0.4019631516     0.1870070750     2.0149809682
 ----------------------------------------------------------------

    8    -409.8562157190      8.93E-05 Convergence criterion met
   11    -410.0133012735      9.43E-06 Convergence criterion met
 Total energy in the final basis set = -410.01330127

                    Orbital Energies (a.u.)
 --------------------------------------------------------------

 Alpha MOs
 -- Occupied --
-19.4041 -19.3859 -19.3531 -19.3471 -14.7731 -14.6145  -1.4639  -1.3707
 -1.2675  -1.2144  -0.8572  -0.7796  -0.7510  -0.7312  -0.6993  -0.6585
 -0.6319  -0.6184  -0.4978  -0.4926  -0.4699  -0.4557  -0.4494  -0.2937

 Beta MOs
 -- Occupied --
-19.3912 -19.3725 -19.3483 -19.3465 -14.7732 -14.5921  -1.4551  -1.3391
 -1.2604  -1.1846  -0.8094  -0.7466  -0.7270  -0.7226  -0.6821  -0.6156
 -0.5844  -0.5677  -0.4788  -0.4745  -0.4645  -0.4198

                    Cartesian Multipole Moments
 -----------------------------------------------------------------
    Charge (ESU x 10^10)
                -0.0000
    Dipole Moment (Debye)
         X       0.1184      Y      -0.6963      Z      -0.0211
       Tot       0.7066
    Quadrupole Moments (Debye-Ang)
        XX     -32.0884     XY      -1.4530     YY     -34.0913
        XZ      -0.5878     YZ      -0.8093     ZZ     -33.0155

 Total job time:  17.30s(wall), 92.59s(cpu)
        *  Thank you very much for using Q-Chem.  Have a nice day.  *
