 Q-Chem 5.3 (devel), Q-Chem, Inc., Pleasanton, CA (2020)
 Q-Chem 5.3.0 for Intel X86 EM64T Linux

User input:
--------------------------------------------------------------
$rem
   JOBTYPE  sp
   EXCHANGE   omegaB97X-D
   BASIS   6-311+G(2df,2pd)
   UNRESTRICTED   True
   max_scf_cycles   250
   geom_opt_max_cycles   1500
   basis2 6-31G*
   scf_algorithm rca_diis
   SYM_IGNORE  TRUE
   print_input   true
   geom_opt_dmax   80
   pop_mulliken false
   XC_GRID 000075000302
$end

$molecule
0 3
N       0.6537621652     1.2410795671     2.4415394449
O       0.3869342146     2.1574482937     1.8744265242
O       1.6255217947     0.9741671586     3.2113113550
N       0.0380595044     -1.1510274714     3.1376715298
O       -0.4797476420     -1.3265660533     4.1769280114
O       -0.2795389069     0.1998876152     2.2584230247
$end
--------------------------------------------------------------

             Standard Nuclear Orientation (Angstroms)
    I     Atom           X                Y                Z
 ----------------------------------------------------------------
    1      N       0.6537621652     1.2410795671     2.4415394449
    2      O       0.3869342146     2.1574482937     1.8744265242
    3      O       1.6255217947     0.9741671586     3.2113113550
    4      N       0.0380595044    -1.1510274714     3.1376715298
    5      O      -0.4797476420    -1.3265660533     4.1769280114
    6      O      -0.2795389069     0.1998876152     2.2584230247
 ----------------------------------------------------------------

    8    -409.9077605853      7.15E-05 Convergence criterion met
   10    -410.0650974916      4.48E-06 Convergence criterion met
 Total energy in the final basis set = -410.06509749

                    Orbital Energies (a.u.)
 --------------------------------------------------------------

 Alpha MOs
 -- Occupied --
-19.4119 -19.4002 -19.3716 -19.3211 -14.7709 -14.6222  -1.4737  -1.3656
 -1.2470  -1.1957  -0.8799  -0.7766  -0.7287  -0.7259  -0.6849  -0.6550
 -0.6315  -0.6312  -0.5062  -0.5015  -0.4550  -0.4515  -0.4320  -0.3409

 Beta MOs
 -- Occupied --
-19.3984 -19.3822 -19.3699 -19.3213 -14.7707 -14.6038  -1.4692  -1.3269
 -1.2360  -1.1714  -0.8358  -0.7454  -0.7264  -0.7081  -0.6746  -0.5990
 -0.5816  -0.5568  -0.4822  -0.4791  -0.4508  -0.4308

                    Cartesian Multipole Moments
 -----------------------------------------------------------------
    Charge (ESU x 10^10)
                -0.0000
    Dipole Moment (Debye)
         X      -0.8061      Y      -0.4082      Z      -0.4495
       Tot       1.0092
    Quadrupole Moments (Debye-Ang)
        XX     -34.1680     XY      -1.4651     YY     -31.9675
        XZ      -3.8342     YZ      -0.8727     ZZ     -34.7430

 Total job time:  15.38s(wall), 82.09s(cpu)
        *  Thank you very much for using Q-Chem.  Have a nice day.  *
