 Q-Chem 5.3 (devel), Q-Chem, Inc., Pleasanton, CA (2020)
 Q-Chem 5.3.0 for Intel X86 EM64T Linux

User input:
--------------------------------------------------------------
$rem
   JOBTYPE  sp
   EXCHANGE   omegaB97X-D
   BASIS   6-311+G(2df,2pd)
   UNRESTRICTED   True
   max_scf_cycles   250
   geom_opt_max_cycles   1500
   basis2 6-31G*
   scf_algorithm rca_diis
   SYM_IGNORE  TRUE
   print_input   true
   geom_opt_dmax   80
   pop_mulliken false
   XC_GRID 000075000302
$end

$molecule
0 3
N       0.6772180535     1.2454734380     2.4693559074
O       0.4108176712     2.2388241485     1.8789396099
O       1.5959391364     0.9890328918     3.1602334460
N       0.0580841951     -1.2053577456     3.1492308441
O       -0.5053064487     -1.3002547996     4.1738741129
O       -0.2917614775     0.1272711768     2.2686659696
$end
--------------------------------------------------------------

             Standard Nuclear Orientation (Angstroms)
    I     Atom           X                Y                Z
 ----------------------------------------------------------------
    1      N       0.6772180535     1.2454734380     2.4693559074
    2      O       0.4108176712     2.2388241485     1.8789396099
    3      O       1.5959391364     0.9890328918     3.1602334460
    4      N       0.0580841951    -1.2053577456     3.1492308441
    5      O      -0.5053064487    -1.3002547996     4.1738741129
    6      O      -0.2917614775     0.1272711768     2.2686659696
 ----------------------------------------------------------------

    7    -409.9214229951      7.85E-05 Convergence criterion met
   10    -410.0768925905      4.79E-06 Convergence criterion met
 Total energy in the final basis set = -410.07689259

                    Orbital Energies (a.u.)
 --------------------------------------------------------------

 Alpha MOs
 -- Occupied --
-19.4052 -19.4003 -19.3569 -19.3486 -14.7706 -14.6206  -1.4400  -1.3677
 -1.2599  -1.1896  -0.8682  -0.7771  -0.7190  -0.7133  -0.6818  -0.6568
 -0.6338  -0.6316  -0.4972  -0.4902  -0.4668  -0.4610  -0.4439  -0.3403

 Beta MOs
 -- Occupied --
-19.3922 -19.3815 -19.3553 -19.3490 -14.7702 -14.6032  -1.4369  -1.3285
 -1.2581  -1.1532  -0.8263  -0.7447  -0.7118  -0.7044  -0.6733  -0.6013
 -0.5812  -0.5584  -0.4709  -0.4672  -0.4661  -0.4486

                    Cartesian Multipole Moments
 -----------------------------------------------------------------
    Charge (ESU x 10^10)
                 0.0000
    Dipole Moment (Debye)
         X      -0.1782      Y      -0.6310      Z       0.1037
       Tot       0.6638
    Quadrupole Moments (Debye-Ang)
        XX     -33.0829     XY      -0.8637     YY     -32.9802
        XZ      -1.6099     YZ      -0.7158     ZZ     -31.9003

 Total job time:  15.13s(wall), 80.73s(cpu)
        *  Thank you very much for using Q-Chem.  Have a nice day.  *
