 Q-Chem 5.3 (devel), Q-Chem, Inc., Pleasanton, CA (2020)
 Q-Chem 5.3.0 for Intel X86 EM64T Linux

User input:
--------------------------------------------------------------
$rem
   JOBTYPE  sp
   EXCHANGE   omegaB97X-D
   BASIS   6-311+G(2df,2pd)
   UNRESTRICTED   True
   max_scf_cycles   250
   geom_opt_max_cycles   1500
   basis2 6-31G*
   scf_algorithm rca_diis
   SYM_IGNORE  TRUE
   print_input   true
   geom_opt_dmax   80
   pop_mulliken false
   XC_GRID 000075000302
$end

$molecule
0 3
N       0.9276067310     1.3395087124     2.5025620410
O       0.0990313593     1.9449322604     1.9071161130
O       2.0129064836     1.6012495076     2.8697881910
N       -0.2770558286     -1.3168463123     3.0967725530
O       -0.9275400773     -1.5697356701     4.0649678190
O       0.1100424621     0.0958806119     2.6590931731
$end
--------------------------------------------------------------

             Standard Nuclear Orientation (Angstroms)
    I     Atom           X                Y                Z
 ----------------------------------------------------------------
    1      N       0.9276067310     1.3395087124     2.5025620410
    2      O       0.0990313593     1.9449322604     1.9071161130
    3      O       2.0129064836     1.6012495076     2.8697881910
    4      N      -0.2770558286    -1.3168463123     3.0967725530
    5      O      -0.9275400773    -1.5697356701     4.0649678190
    6      O       0.1100424621     0.0958806119     2.6590931731
 ----------------------------------------------------------------

    8    -409.8727738538      6.33E-05 Convergence criterion met
   11    -410.0288306784      6.83E-06 Convergence criterion met
 Total energy in the final basis set = -410.02883068

                    Orbital Energies (a.u.)
 --------------------------------------------------------------

 Alpha MOs
 -- Occupied --
-19.3767 -19.3746 -19.3746 -19.3723 -14.7729 -14.6127  -1.4513  -1.3354
 -1.2851  -1.1703  -0.8963  -0.7686  -0.7245  -0.7210  -0.6907  -0.6327
 -0.6135  -0.5796  -0.5295  -0.4893  -0.4709  -0.4583  -0.4172  -0.3197

 Beta MOs
 -- Occupied --
-19.3743 -19.3668 -19.3639 -19.3603 -14.7715 -14.5953  -1.4447  -1.2991
 -1.2774  -1.1386  -0.8594  -0.7501  -0.7177  -0.6894  -0.6827  -0.5707
 -0.5601  -0.5396  -0.4862  -0.4789  -0.4482  -0.4332

                    Cartesian Multipole Moments
 -----------------------------------------------------------------
    Charge (ESU x 10^10)
                 0.0000
    Dipole Moment (Debye)
         X       0.5626      Y       0.2465      Z      -0.1238
       Tot       0.6266
    Quadrupole Moments (Debye-Ang)
        XX     -33.0349     XY      -0.2989     YY     -32.3873
        XZ       1.1578     YZ       2.1066     ZZ     -32.5887

 Total job time:  15.42s(wall), 83.11s(cpu)
        *  Thank you very much for using Q-Chem.  Have a nice day.  *
