 Q-Chem 5.3 (devel), Q-Chem, Inc., Pleasanton, CA (2020)
 Q-Chem 5.3.0 for Intel X86 EM64T Linux

User input:
--------------------------------------------------------------
$rem
   JOBTYPE  sp
   EXCHANGE   omegaB97X-D
   BASIS   6-311+G(2df,2pd)
   UNRESTRICTED   True
   max_scf_cycles   250
   geom_opt_max_cycles   1500
   basis2 6-31G*
   scf_algorithm rca_diis
   SYM_IGNORE  TRUE
   print_input   true
   geom_opt_dmax   80
   pop_mulliken false
   XC_GRID 000075000302
$end

$molecule
0 3
N       0.5773502394     1.0900656925     2.4642359328
O       0.4810044796     2.1472103510     1.9370481429
O       1.5555048128     1.0834902562     3.1029008988
N       0.0328881110     -1.1143674002     3.1411316140
O       -0.4861229422     -1.3374092841     4.1608436108
O       -0.2156335705     0.2259994945     2.2941396908
$end
--------------------------------------------------------------

             Standard Nuclear Orientation (Angstroms)
    I     Atom           X                Y                Z
 ----------------------------------------------------------------
    1      N       0.5773502394     1.0900656925     2.4642359328
    2      O       0.4810044796     2.1472103510     1.9370481429
    3      O       1.5555048128     1.0834902562     3.1029008988
    4      N       0.0328881110    -1.1143674002     3.1411316140
    5      O      -0.4861229422    -1.3374092841     4.1608436108
    6      O      -0.2156335705     0.2259994945     2.2941396908
 ----------------------------------------------------------------

   12    -409.8547430648      8.08E-05 Convergence criterion met
   14    -410.0143415120      3.64E-06 Convergence criterion met
 Total energy in the final basis set = -410.01434151

                    Orbital Energies (a.u.)
 --------------------------------------------------------------

 Alpha MOs
 -- Occupied --
-19.4300 -19.3763 -19.3589 -19.3373 -14.7912 -14.5958  -1.5327  -1.3601
 -1.3221  -1.2469  -0.9134  -0.7798  -0.7664  -0.7298  -0.7175  -0.6403
 -0.6163  -0.6134  -0.5470  -0.5220  -0.4656  -0.4534  -0.4310  -0.3234

 Beta MOs
 -- Occupied --
-19.4218 -19.3612 -19.3499 -19.3339 -14.7915 -14.5796  -1.5236  -1.3327
 -1.3000  -1.2326  -0.8788  -0.7769  -0.7363  -0.7103  -0.6901  -0.5980
 -0.5801  -0.5442  -0.5075  -0.4992  -0.4570  -0.3830

                    Cartesian Multipole Moments
 -----------------------------------------------------------------
    Charge (ESU x 10^10)
                 0.0000
    Dipole Moment (Debye)
         X      -0.5136      Y      -0.2350      Z      -0.4738
       Tot       0.7372
    Quadrupole Moments (Debye-Ang)
        XX     -33.2416     XY      -1.4583     YY     -34.2923
        XZ      -2.4196     YZ       0.8921     ZZ     -35.1108

 Total job time:  20.36s(wall), 111.54s(cpu)
        *  Thank you very much for using Q-Chem.  Have a nice day.  *
