 Q-Chem 5.3 (devel), Q-Chem, Inc., Pleasanton, CA (2020)
 Q-Chem 5.3.0 for Intel X86 EM64T Linux

User input:
--------------------------------------------------------------
$rem
   JOBTYPE  sp
   EXCHANGE   omegaB97X-D
   BASIS   6-311+G(2df,2pd)
   UNRESTRICTED   True
   max_scf_cycles   250
   geom_opt_max_cycles   1500
   basis2 6-31G*
   scf_algorithm rca_diis
   SYM_IGNORE  TRUE
   print_input   true
   geom_opt_dmax   80
   pop_mulliken false
   XC_GRID 000075000302
$end

$molecule
0 3
N       0.6588757752     1.2473843580     2.4838262547
O       0.3412670917     2.2090041638     1.8267901825
O       1.5836989782     0.9182156163     3.1438861304
N       0.0502176611     -1.1366921406     3.1605452029
O       -0.5313952333     -1.3514910025     4.1595747328
O       -0.1576731428     0.2085681148     2.3256773866
$end
--------------------------------------------------------------

             Standard Nuclear Orientation (Angstroms)
    I     Atom           X                Y                Z
 ----------------------------------------------------------------
    1      N       0.6588757752     1.2473843580     2.4838262547
    2      O       0.3412670917     2.2090041638     1.8267901825
    3      O       1.5836989782     0.9182156163     3.1438861304
    4      N       0.0502176611    -1.1366921406     3.1605452029
    5      O      -0.5313952333    -1.3514910025     4.1595747328
    6      O      -0.1576731428     0.2085681148     2.3256773866
 ----------------------------------------------------------------

    8    -409.9085566354      6.35E-05 Convergence criterion met
   10    -410.0642289701      6.56E-06 Convergence criterion met
 Total energy in the final basis set = -410.06422897

                    Orbital Energies (a.u.)
 --------------------------------------------------------------

 Alpha MOs
 -- Occupied --
-19.4127 -19.4010 -19.3525 -19.3368 -14.7776 -14.6265  -1.4599  -1.3669
 -1.2614  -1.2255  -0.9046  -0.7716  -0.7303  -0.7216  -0.6891  -0.6569
 -0.6341  -0.6227  -0.5045  -0.4987  -0.4635  -0.4570  -0.4364  -0.3454

 Beta MOs
 -- Occupied --
-19.4004 -19.3828 -19.3502 -19.3369 -14.7774 -14.6077  -1.4527  -1.3280
 -1.2577  -1.1984  -0.8614  -0.7388  -0.7256  -0.7057  -0.6747  -0.6010
 -0.5847  -0.5535  -0.4809  -0.4686  -0.4616  -0.4403

                    Cartesian Multipole Moments
 -----------------------------------------------------------------
    Charge (ESU x 10^10)
                -0.0000
    Dipole Moment (Debye)
         X      -0.3840      Y      -0.8341      Z       0.1136
       Tot       0.9252
    Quadrupole Moments (Debye-Ang)
        XX     -33.4922     XY      -1.1877     YY     -33.5390
        XZ      -2.2429     YZ      -0.8454     ZZ     -31.8335

 Total job time:  15.50s(wall), 82.94s(cpu)
        *  Thank you very much for using Q-Chem.  Have a nice day.  *
