 Q-Chem 5.3 (devel), Q-Chem, Inc., Pleasanton, CA (2020)
 Q-Chem 5.3.0 for Intel X86 EM64T Linux

User input:
--------------------------------------------------------------
$rem
   JOBTYPE  sp
   EXCHANGE   omegaB97X-D
   BASIS   6-311+G(2df,2pd)
   UNRESTRICTED   True
   max_scf_cycles   250
   geom_opt_max_cycles   1500
   basis2 6-31G*
   scf_algorithm rca_diis
   SYM_IGNORE  TRUE
   print_input   true
   geom_opt_dmax   80
   pop_mulliken false
   XC_GRID 000075000302
$end

$molecule
0 3
N       0.6793182716     1.2274380927     2.4630317099
O       0.3618704181     2.2013721709     1.8354841595
O       1.5736910550     0.9413350590     3.1803998607
N       0.0351006880     -1.1447134138     3.1427112710
O       -0.4926897573     -1.3429444768     4.1705659118
O       -0.2122995453     0.2125016779     2.3081069772
$end
--------------------------------------------------------------

             Standard Nuclear Orientation (Angstroms)
    I     Atom           X                Y                Z
 ----------------------------------------------------------------
    1      N       0.6793182716     1.2274380927     2.4630317099
    2      O       0.3618704181     2.2013721709     1.8354841595
    3      O       1.5736910550     0.9413350590     3.1803998607
    4      N       0.0351006880    -1.1447134138     3.1427112710
    5      O      -0.4926897573    -1.3429444768     4.1705659118
    6      O      -0.2122995453     0.2125016779     2.3081069772
 ----------------------------------------------------------------

    8    -409.9191339088      6.49E-05 Convergence criterion met
   10    -410.0746789666      5.48E-06 Convergence criterion met
 Total energy in the final basis set = -410.07467897

                    Orbital Energies (a.u.)
 --------------------------------------------------------------

 Alpha MOs
 -- Occupied --
-19.4123 -19.4010 -19.3515 -19.3407 -14.7764 -14.6248  -1.4533  -1.3687
 -1.2609  -1.2214  -0.8942  -0.7733  -0.7252  -0.7217  -0.6880  -0.6571
 -0.6342  -0.6268  -0.5038  -0.4983  -0.4641  -0.4586  -0.4376  -0.3439

 Beta MOs
 -- Occupied --
-19.3999 -19.3828 -19.3492 -19.3410 -14.7762 -14.6062  -1.4471  -1.3299
 -1.2580  -1.1921  -0.8505  -0.7399  -0.7224  -0.7055  -0.6743  -0.6027
 -0.5843  -0.5557  -0.4801  -0.4692  -0.4628  -0.4445

                    Cartesian Multipole Moments
 -----------------------------------------------------------------
    Charge (ESU x 10^10)
                -0.0000
    Dipole Moment (Debye)
         X      -0.3096      Y      -0.8571      Z       0.0634
       Tot       0.9136
    Quadrupole Moments (Debye-Ang)
        XX     -33.2587     XY      -1.0925     YY     -33.5215
        XZ      -2.1182     YZ      -1.0046     ZZ     -32.1730

 Total job time:  15.54s(wall), 82.97s(cpu)
        *  Thank you very much for using Q-Chem.  Have a nice day.  *
