 Q-Chem 5.3 (devel), Q-Chem, Inc., Pleasanton, CA (2020)
 Q-Chem 5.3.0 for Intel X86 EM64T Linux

User input:
--------------------------------------------------------------
$rem
   JOBTYPE  sp
   EXCHANGE   omegaB97X-D
   BASIS   6-311+G(2df,2pd)
   UNRESTRICTED   True
   max_scf_cycles   250
   geom_opt_max_cycles   1500
   basis2 6-31G*
   scf_algorithm rca_diis
   SYM_IGNORE  TRUE
   print_input   true
   geom_opt_dmax   80
   pop_mulliken false
   XC_GRID 000075000302
$end

$molecule
0 3
N       0.6904758919     1.1947453071     2.4847111633
O       0.3631243019     2.1501806023     1.8506051951
O       1.6079537541     0.9801354485     3.2054576808
N       0.0257562054     -1.1235786296     3.1371162848
O       -0.4664237856     -1.3383510046     4.1721973504
O       -0.2758952375     0.2318573862     2.2502122155
$end
--------------------------------------------------------------

             Standard Nuclear Orientation (Angstroms)
    I     Atom           X                Y                Z
 ----------------------------------------------------------------
    1      N       0.6904758919     1.1947453071     2.4847111633
    2      O       0.3631243019     2.1501806023     1.8506051951
    3      O       1.6079537541     0.9801354485     3.2054576808
    4      N       0.0257562054    -1.1235786296     3.1371162848
    5      O      -0.4664237856    -1.3383510046     4.1721973504
    6      O      -0.2758952375     0.2318573862     2.2502122155
 ----------------------------------------------------------------

    8    -409.9250005180      6.10E-05 Convergence criterion met
   10    -410.0802154440      6.08E-06 Convergence criterion met
 Total energy in the final basis set = -410.08021544

                    Orbital Energies (a.u.)
 --------------------------------------------------------------

 Alpha MOs
 -- Occupied --
-19.4152 -19.3992 -19.3483 -19.3478 -14.7753 -14.6190  -1.4505  -1.3696
 -1.2623  -1.2154  -0.8766  -0.7773  -0.7228  -0.7212  -0.6888  -0.6553
 -0.6332  -0.6322  -0.5047  -0.5001  -0.4643  -0.4620  -0.4338  -0.3397

 Beta MOs
 -- Occupied --
-19.4018 -19.3817 -19.3487 -19.3450 -14.7752 -14.6007  -1.4447  -1.3321
 -1.2590  -1.1840  -0.8321  -0.7450  -0.7203  -0.7048  -0.6743  -0.6057
 -0.5839  -0.5585  -0.4827  -0.4730  -0.4614  -0.4462

                    Cartesian Multipole Moments
 -----------------------------------------------------------------
    Charge (ESU x 10^10)
                -0.0000
    Dipole Moment (Debye)
         X      -0.2693      Y      -0.8282      Z       0.0783
       Tot       0.8744
    Quadrupole Moments (Debye-Ang)
        XX     -33.0313     XY      -1.0353     YY     -33.6081
        XZ      -1.9583     YZ      -0.8948     ZZ     -32.1741

 Total job time:  15.76s(wall), 84.25s(cpu)
        *  Thank you very much for using Q-Chem.  Have a nice day.  *
