 Q-Chem 5.3 (devel), Q-Chem, Inc., Pleasanton, CA (2020)
 Q-Chem 5.3.0 for Intel X86 EM64T Linux

User input:
--------------------------------------------------------------
$rem
   JOBTYPE  sp
   EXCHANGE   omegaB97X-D
   BASIS   6-311+G(2df,2pd)
   UNRESTRICTED   True
   max_scf_cycles   250
   geom_opt_max_cycles   1500
   basis2 6-31G*
   scf_algorithm rca_diis
   SYM_IGNORE  TRUE
   print_input   true
   geom_opt_dmax   80
   pop_mulliken false
   XC_GRID 000075000302
$end

$molecule
0 3
N       0.7101664308     1.2352820435     2.4816925204
O       0.3610197346     2.1815462751     1.8476968119
O       1.6089062938     0.9637643354     3.2071174424
N       0.0370486866     -1.1567180855     3.1390643587
O       -0.4757979392     -1.3219370952     4.1764204221
O       -0.2963520765     0.1930516366     2.2483083346
$end
--------------------------------------------------------------

             Standard Nuclear Orientation (Angstroms)
    I     Atom           X                Y                Z
 ----------------------------------------------------------------
    1      N       0.7101664308     1.2352820435     2.4816925204
    2      O       0.3610197346     2.1815462751     1.8476968119
    3      O       1.6089062938     0.9637643354     3.2071174424
    4      N       0.0370486866    -1.1567180855     3.1390643587
    5      O      -0.4757979392    -1.3219370952     4.1764204221
    6      O      -0.2963520765     0.1930516366     2.2483083346
 ----------------------------------------------------------------

    8    -409.9248925624      7.73E-05 Convergence criterion met
    9    -410.0797080639      9.05E-06 Convergence criterion met
 Total energy in the final basis set = -410.07970806

                    Orbital Energies (a.u.)
 --------------------------------------------------------------

 Alpha MOs
 -- Occupied --
-19.4021 -19.3948 -19.3595 -19.3584 -14.7756 -14.6148  -1.4389  -1.3638
 -1.2685  -1.1883  -0.8624  -0.7768  -0.7222  -0.7152  -0.6848  -0.6552
 -0.6313  -0.6277  -0.4988  -0.4897  -0.4716  -0.4639  -0.4379  -0.3353

 Beta MOs
 -- Occupied --
-19.3887 -19.3769 -19.3589 -19.3575 -14.7753 -14.5970  -1.4351  -1.3258
 -1.2664  -1.1525  -0.8201  -0.7469  -0.7134  -0.7042  -0.6771  -0.6016
 -0.5781  -0.5549  -0.4751  -0.4675  -0.4651  -0.4570

                    Cartesian Multipole Moments
 -----------------------------------------------------------------
    Charge (ESU x 10^10)
                -0.0000
    Dipole Moment (Debye)
         X       0.0045      Y      -0.4506      Z       0.0753
       Tot       0.4569
    Quadrupole Moments (Debye-Ang)
        XX     -32.7848     XY      -0.6873     YY     -32.9251
        XZ      -1.1201     YZ      -0.0574     ZZ     -32.2326

 Total job time:  14.46s(wall), 76.73s(cpu)
        *  Thank you very much for using Q-Chem.  Have a nice day.  *
