 Q-Chem 5.3 (devel), Q-Chem, Inc., Pleasanton, CA (2020)
 Q-Chem 5.3.0 for Intel X86 EM64T Linux

User input:
--------------------------------------------------------------
$rem
   JOBTYPE  sp
   EXCHANGE   omegaB97X-D
   BASIS   6-311+G(2df,2pd)
   UNRESTRICTED   True
   max_scf_cycles   250
   geom_opt_max_cycles   1500
   basis2 6-31G*
   scf_algorithm rca_diis
   SYM_IGNORE  TRUE
   print_input   true
   geom_opt_dmax   80
   pop_mulliken false
   XC_GRID 000075000302
$end

$molecule
0 3
N       0.6908785665     1.1886233383     2.4829802912
O       0.3419818605     2.1944091418     1.9003067951
O       1.6204643309     0.9758276200     3.1699610206
N       0.1183469834     -1.1444223468     3.0216493187
O       -0.5711575166     -1.3102596114     4.3111853710
O       -0.2555230947     0.1908109681     2.2142170934
$end
--------------------------------------------------------------

             Standard Nuclear Orientation (Angstroms)
    I     Atom           X                Y                Z
 ----------------------------------------------------------------
    1      N       0.6908785665     1.1886233383     2.4829802912
    2      O       0.3419818605     2.1944091418     1.9003067951
    3      O       1.6204643309     0.9758276200     3.1699610206
    4      N       0.1183469834    -1.1444223468     3.0216493187
    5      O      -0.5711575166    -1.3102596114     4.3111853710
    6      O      -0.2555230947     0.1908109681     2.2142170934
 ----------------------------------------------------------------

   11    -409.8692648526      8.39E-05 Convergence criterion met
   13    -410.0211866192      8.57E-06 Convergence criterion met
 Total energy in the final basis set = -410.02118662

                    Orbital Energies (a.u.)
 --------------------------------------------------------------

 Alpha MOs
 -- Occupied --
-19.4318 -19.4210 -19.3531 -19.3399 -14.7759 -14.6521  -1.4432  -1.2579
 -1.2445  -1.1939  -0.9241  -0.7829  -0.7185  -0.7154  -0.6792  -0.6262
 -0.5928  -0.5777  -0.5183  -0.4914  -0.4742  -0.4588  -0.4440  -0.4191

 Beta MOs
 -- Occupied --
-19.4168 -19.4055 -19.3531 -19.3390 -14.7754 -14.6349  -1.4409  -1.2540
 -1.2164  -1.1410  -0.8718  -0.7611  -0.7172  -0.7065  -0.6729  -0.5884
 -0.5398  -0.4912  -0.4770  -0.4718  -0.4560  -0.4396

                    Cartesian Multipole Moments
 -----------------------------------------------------------------
    Charge (ESU x 10^10)
                 0.0000
    Dipole Moment (Debye)
         X      -0.3092      Y      -0.9736      Z       0.2526
       Tot       1.0523
    Quadrupole Moments (Debye-Ang)
        XX     -33.3468     XY      -0.7516     YY     -34.8857
        XZ      -2.3140     YZ      -1.2984     ZZ     -30.9862

 Total job time:  19.27s(wall), 105.64s(cpu)
        *  Thank you very much for using Q-Chem.  Have a nice day.  *
