 Q-Chem 5.3 (devel), Q-Chem, Inc., Pleasanton, CA (2020)
 Q-Chem 5.3.0 for Intel X86 EM64T Linux

User input:
--------------------------------------------------------------
$rem
   JOBTYPE  sp
   EXCHANGE   omegaB97X-D
   BASIS   6-311+G(2df,2pd)
   UNRESTRICTED   True
   max_scf_cycles   250
   geom_opt_max_cycles   1500
   basis2 6-31G*
   scf_algorithm rca_diis
   SYM_IGNORE  TRUE
   print_input   true
   geom_opt_dmax   80
   pop_mulliken false
   XC_GRID 000075000302
$end

$molecule
0 3
N       0.6670468964     1.1942464080     2.4774427273
O       0.4003886030     2.1850766208     1.8735187889
O       1.5580533365     0.9294031020     3.2108360730
N       0.0660967650     -1.1237874326     3.1393494724
O       -0.4407668979     -1.2893888692     4.1767975775
O       -0.3058275729     0.1994392808     2.2223552509
$end
--------------------------------------------------------------

             Standard Nuclear Orientation (Angstroms)
    I     Atom           X                Y                Z
 ----------------------------------------------------------------
    1      N       0.6670468964     1.1942464080     2.4774427273
    2      O       0.4003886030     2.1850766208     1.8735187889
    3      O       1.5580533365     0.9294031020     3.2108360730
    4      N       0.0660967650    -1.1237874326     3.1393494724
    5      O      -0.4407668979    -1.2893888692     4.1767975775
    6      O      -0.3058275729     0.1994392808     2.2223552509
 ----------------------------------------------------------------

    7    -409.9256518203      9.03E-05 Convergence criterion met
   10    -410.0809009671      5.59E-06 Convergence criterion met
 Total energy in the final basis set = -410.08090097

                    Orbital Energies (a.u.)
 --------------------------------------------------------------

 Alpha MOs
 -- Occupied --
-19.4138 -19.4008 -19.3488 -19.3458 -14.7729 -14.6201  -1.4451  -1.3711
 -1.2583  -1.2105  -0.8714  -0.7781  -0.7197  -0.7187  -0.6876  -0.6568
 -0.6356  -0.6331  -0.5002  -0.4979  -0.4636  -0.4610  -0.4398  -0.3397

 Beta MOs
 -- Occupied --
-19.4002 -19.3831 -19.3467 -19.3461 -14.7727 -14.6019  -1.4402  -1.3334
 -1.2560  -1.1767  -0.8268  -0.7447  -0.7164  -0.7053  -0.6729  -0.6077
 -0.5841  -0.5598  -0.4793  -0.4711  -0.4620  -0.4456

                    Cartesian Multipole Moments
 -----------------------------------------------------------------
    Charge (ESU x 10^10)
                -0.0000
    Dipole Moment (Debye)
         X      -0.2795      Y      -0.8483      Z       0.0821
       Tot       0.8969
    Quadrupole Moments (Debye-Ang)
        XX     -32.9808     XY      -1.0742     YY     -33.5216
        XZ      -1.9628     YZ      -1.1151     ZZ     -32.1284

 Total job time:  15.58s(wall), 83.40s(cpu)
        *  Thank you very much for using Q-Chem.  Have a nice day.  *
