 Q-Chem 5.3 (devel), Q-Chem, Inc., Pleasanton, CA (2020)
 Q-Chem 5.3.0 for Intel X86 EM64T Linux

User input:
--------------------------------------------------------------
$rem
   JOBTYPE  sp
   EXCHANGE   omegaB97X-D
   BASIS   6-311+G(2df,2pd)
   UNRESTRICTED   True
   max_scf_cycles   250
   geom_opt_max_cycles   1500
   basis2 6-31G*
   scf_algorithm rca_diis
   SYM_IGNORE  TRUE
   print_input   true
   geom_opt_dmax   80
   pop_mulliken false
   XC_GRID 000075000302
$end

$molecule
0 3
N       0.5981511716     1.1145042216     2.4678629927
O       0.4593450106     2.1571834176     1.9194898231
O       1.5690489495     1.0630756320     3.1210238442
N       0.0333612814     -1.1226498229     3.1418105682
O       -0.4863993031     -1.3361571139     4.1638010342
O       -0.2285159799     0.2190327755     2.2863116275
$end
--------------------------------------------------------------

             Standard Nuclear Orientation (Angstroms)
    I     Atom           X                Y                Z
 ----------------------------------------------------------------
    1      N       0.5981511716     1.1145042216     2.4678629927
    2      O       0.4593450106     2.1571834176     1.9194898231
    3      O       1.5690489495     1.0630756320     3.1210238442
    4      N       0.0333612814    -1.1226498229     3.1418105682
    5      O      -0.4863993031    -1.3361571139     4.1638010342
    6      O      -0.2285159799     0.2190327755     2.2863116275
 ----------------------------------------------------------------

    9    -409.8818183420      3.49E-05 Convergence criterion met
   20    -410.0402289074      8.82E-06 Convergence criterion met
 Total energy in the final basis set = -410.04022891

                    Orbital Energies (a.u.)
 --------------------------------------------------------------

 Alpha MOs
 -- Occupied --
-19.4404 -19.4048 -19.3311 -19.3169 -14.7757 -14.6260  -1.5008  -1.3784
 -1.2975  -1.2312  -0.9191  -0.7798  -0.7563  -0.7126  -0.7073  -0.6552
 -0.6376  -0.6260  -0.5212  -0.5174  -0.4683  -0.4457  -0.4140  -0.3469

 Beta MOs
 -- Occupied --
-19.4292 -19.3877 -19.3259 -19.3163 -14.7758 -14.6080  -1.4918  -1.3426
 -1.2767  -1.2234  -0.8766  -0.7527  -0.7400  -0.7005  -0.6798  -0.6030
 -0.5929  -0.5630  -0.5041  -0.4868  -0.4419  -0.3958

                    Cartesian Multipole Moments
 -----------------------------------------------------------------
    Charge (ESU x 10^10)
                 0.0000
    Dipole Moment (Debye)
         X      -0.8851      Y      -1.3985      Z      -0.0390
       Tot       1.6555
    Quadrupole Moments (Debye-Ang)
        XX     -33.6993     XY      -1.7956     YY     -34.7345
        XZ      -3.7224     YZ      -2.3085     ZZ     -32.5734

 Total job time:  25.88s(wall), 145.05s(cpu)
        *  Thank you very much for using Q-Chem.  Have a nice day.  *
