 Q-Chem 5.3 (devel), Q-Chem, Inc., Pleasanton, CA (2020)
 Q-Chem 5.3.0 for Intel X86 EM64T Linux

User input:
--------------------------------------------------------------
$rem
   JOBTYPE  sp
   EXCHANGE   omegaB97X-D
   BASIS   6-311+G(2df,2pd)
   UNRESTRICTED   True
   max_scf_cycles   250
   geom_opt_max_cycles   1500
   basis2 6-31G*
   scf_algorithm rca_diis
   SYM_IGNORE  TRUE
   print_input   true
   geom_opt_dmax   80
   pop_mulliken false
   XC_GRID 000075000302
$end

$molecule
0 3
N       0.6918183874     1.1998802012     2.4858255155
O       0.3883153784     2.1671701899     1.8725923727
O       1.6158811462     1.0027928210     3.1997672367
N       0.0365483871     -1.1517184815     3.1364794406
O       -0.4680590176     -1.3146690363     4.1754124172
O       -0.3195131513     0.1915334156     2.2302229073
$end
--------------------------------------------------------------

             Standard Nuclear Orientation (Angstroms)
    I     Atom           X                Y                Z
 ----------------------------------------------------------------
    1      N       0.6918183874     1.1998802012     2.4858255155
    2      O       0.3883153784     2.1671701899     1.8725923727
    3      O       1.6158811462     1.0027928210     3.1997672367
    4      N       0.0365483871    -1.1517184815     3.1364794406
    5      O      -0.4680590176    -1.3146690363     4.1754124172
    6      O      -0.3195131513     0.1915334156     2.2302229073
 ----------------------------------------------------------------

    7    -409.9248032011      9.69E-05 Convergence criterion met
   10    -410.0800692667      5.78E-06 Convergence criterion met
 Total energy in the final basis set = -410.08006927

                    Orbital Energies (a.u.)
 --------------------------------------------------------------

 Alpha MOs
 -- Occupied --
-19.4121 -19.3994 -19.3514 -19.3497 -14.7721 -14.6182  -1.4433  -1.3696
 -1.2598  -1.2005  -0.8653  -0.7794  -0.7194  -0.7164  -0.6854  -0.6558
 -0.6362  -0.6316  -0.5006  -0.4967  -0.4651  -0.4630  -0.4380  -0.3386

 Beta MOs
 -- Occupied --
-19.3983 -19.3817 -19.3518 -19.3475 -14.7719 -14.6004  -1.4392  -1.3320
 -1.2573  -1.1649  -0.8217  -0.7471  -0.7144  -0.7042  -0.6732  -0.6053
 -0.5828  -0.5597  -0.4782  -0.4725  -0.4624  -0.4475

                    Cartesian Multipole Moments
 -----------------------------------------------------------------
    Charge (ESU x 10^10)
                -0.0000
    Dipole Moment (Debye)
         X      -0.2044      Y      -0.7594      Z       0.0994
       Tot       0.7927
    Quadrupole Moments (Debye-Ang)
        XX     -32.9494     XY      -0.9385     YY     -33.3748
        XZ      -1.7258     YZ      -0.8640     ZZ     -32.0484

 Total job time:  15.04s(wall), 80.15s(cpu)
        *  Thank you very much for using Q-Chem.  Have a nice day.  *
