 Q-Chem 5.3 (devel), Q-Chem, Inc., Pleasanton, CA (2020)
 Q-Chem 5.3.0 for Intel X86 EM64T Linux

User input:
--------------------------------------------------------------
$rem
   JOBTYPE  sp
   EXCHANGE   omegaB97X-D
   BASIS   6-311+G(2df,2pd)
   UNRESTRICTED   True
   max_scf_cycles   250
   geom_opt_max_cycles   1500
   basis2 6-31G*
   scf_algorithm rca_diis
   SYM_IGNORE  TRUE
   print_input   true
   geom_opt_dmax   80
   pop_mulliken false
   XC_GRID 000075000302
$end

$molecule
0 3
N       0.7013581357     1.2883369340     2.4337048944
O       0.5615818860     2.2302553282     1.7420685972
O       1.5087486026     1.0201514786     3.2483616252
N       -0.1499990933     -1.0000597085     3.2354257106
O       -0.3093459795     -1.6278333641     4.2122800038
O       -0.3673524213     0.1841384416     2.2284590588
$end
--------------------------------------------------------------

             Standard Nuclear Orientation (Angstroms)
    I     Atom           X                Y                Z
 ----------------------------------------------------------------
    1      N       0.7013581357     1.2883369340     2.4337048944
    2      O       0.5615818860     2.2302553282     1.7420685972
    3      O       1.5087486026     1.0201514786     3.2483616252
    4      N      -0.1499990933    -1.0000597085     3.2354257106
    5      O      -0.3093459795    -1.6278333641     4.2122800038
    6      O      -0.3673524213     0.1841384416     2.2284590588
 ----------------------------------------------------------------

    8    -409.8958146056      9.12E-05 Convergence criterion met
   10    -410.0515636689      5.94E-06 Convergence criterion met
 Total energy in the final basis set = -410.05156367

                    Orbital Energies (a.u.)
 --------------------------------------------------------------

 Alpha MOs
 -- Occupied --
-19.3963 -19.3914 -19.3595 -19.3517 -14.7649 -14.6294  -1.4377  -1.3610
 -1.2647  -1.1836  -0.8714  -0.7712  -0.7196  -0.7108  -0.6805  -0.6594
 -0.6344  -0.6318  -0.4878  -0.4867  -0.4694  -0.4539  -0.3883  -0.3402

 Beta MOs
 -- Occupied --
-19.3807 -19.3778 -19.3581 -19.3519 -14.7635 -14.6076  -1.4345  -1.3223
 -1.2627  -1.1453  -0.8255  -0.7439  -0.7083  -0.7034  -0.6737  -0.6108
 -0.5867  -0.5586  -0.4695  -0.4684  -0.4653  -0.4500

                    Cartesian Multipole Moments
 -----------------------------------------------------------------
    Charge (ESU x 10^10)
                -0.0000
    Dipole Moment (Debye)
         X      -0.1855      Y      -0.3694      Z       0.1688
       Tot       0.4465
    Quadrupole Moments (Debye-Ang)
        XX     -32.6593     XY      -0.8310     YY     -33.1273
        XZ      -1.9550     YZ       0.5231     ZZ     -31.9350

 Total job time:  14.43s(wall), 76.79s(cpu)
        *  Thank you very much for using Q-Chem.  Have a nice day.  *
