 Q-Chem 5.3 (devel), Q-Chem, Inc., Pleasanton, CA (2020)
 Q-Chem 5.3.0 for Intel X86 EM64T Linux

User input:
--------------------------------------------------------------
$rem
   JOBTYPE  sp
   EXCHANGE   omegaB97X-D
   BASIS   6-311+G(2df,2pd)
   UNRESTRICTED   True
   max_scf_cycles   250
   geom_opt_max_cycles   1500
   basis2 6-31G*
   scf_algorithm rca_diis
   SYM_IGNORE  TRUE
   print_input   true
   geom_opt_dmax   80
   pop_mulliken false
   XC_GRID 000075000302
$end

$molecule
0 3
N       0.7775623263     1.3106773378     2.4958703992
O       0.3080044873     2.1761497369     1.8198720842
O       1.6204128917     0.9076343408     3.2420610352
N       0.0441928137     -1.1707954733     3.1388546645
O       -0.4719595119     -1.3078783499     4.1805017107
O       -0.3332218770     0.1792015176     2.2231399961
$end
--------------------------------------------------------------

             Standard Nuclear Orientation (Angstroms)
    I     Atom           X                Y                Z
 ----------------------------------------------------------------
    1      N       0.7775623263     1.3106773378     2.4958703992
    2      O       0.3080044873     2.1761497369     1.8198720842
    3      O       1.6204128917     0.9076343408     3.2420610352
    4      N       0.0441928137    -1.1707954733     3.1388546645
    5      O      -0.4719595119    -1.3078783499     4.1805017107
    6      O      -0.3332218770     0.1792015176     2.2231399961
 ----------------------------------------------------------------

    9    -409.9025423326      4.85E-05 Convergence criterion met
    9    -410.0567879932      7.39E-06 Convergence criterion met
 Total energy in the final basis set = -410.05678799

                    Orbital Energies (a.u.)
 --------------------------------------------------------------

 Alpha MOs
 -- Occupied --
-19.3895 -19.3883 -19.3785 -19.3667 -14.7830 -14.5972  -1.4306  -1.3463
 -1.2923  -1.1338  -0.8318  -0.7839  -0.7220  -0.7132  -0.6944  -0.6439
 -0.6212  -0.6112  -0.5024  -0.4940  -0.4606  -0.4582  -0.4243  -0.3178

 Beta MOs
 -- Occupied --
-19.3900 -19.3866 -19.3609 -19.3527 -14.7822 -14.5805  -1.4278  -1.3091
 -1.2906  -1.0918  -0.8028  -0.7501  -0.7119  -0.7008  -0.6923  -0.5898
 -0.5621  -0.5436  -0.4939  -0.4840  -0.4439  -0.4373

                    Cartesian Multipole Moments
 -----------------------------------------------------------------
    Charge (ESU x 10^10)
                -0.0000
    Dipole Moment (Debye)
         X       0.7748      Y       0.6546      Z       0.0507
       Tot       1.0155
    Quadrupole Moments (Debye-Ang)
        XX     -31.9441     XY       0.2533     YY     -31.2885
        XZ       1.2002     YZ       2.6661     ZZ     -32.5701

 Total job time:  13.79s(wall), 72.67s(cpu)
        *  Thank you very much for using Q-Chem.  Have a nice day.  *
