 Q-Chem 5.3 (devel), Q-Chem, Inc., Pleasanton, CA (2020)
 Q-Chem 5.3.0 for Intel X86 EM64T Linux

User input:
--------------------------------------------------------------
$rem
   JOBTYPE  sp
   EXCHANGE   omegaB97X-D
   BASIS   6-311+G(2df,2pd)
   UNRESTRICTED   True
   max_scf_cycles   250
   geom_opt_max_cycles   1500
   basis2 6-31G*
   scf_algorithm rca_diis
   SYM_IGNORE  TRUE
   print_input   true
   geom_opt_dmax   80
   pop_mulliken false
   XC_GRID 000075000302
$end

$molecule
0 3
N       0.7053083946     1.1438094097     2.5255475423
O       0.4161190810     2.1012119557     1.9322580060
O       1.6608077399     1.0705845286     3.2271438618
N       0.0500120698     -1.1368186785     3.1210402844
O       -0.4261097629     -1.2532014209     4.1708376348
O       -0.4611463923     0.1694033152     2.1234725606
$end
--------------------------------------------------------------

             Standard Nuclear Orientation (Angstroms)
    I     Atom           X                Y                Z
 ----------------------------------------------------------------
    1      N       0.7053083946     1.1438094097     2.5255475423
    2      O       0.4161190810     2.1012119557     1.9322580060
    3      O       1.6608077399     1.0705845286     3.2271438618
    4      N       0.0500120698    -1.1368186785     3.1210402844
    5      O      -0.4261097629    -1.2532014209     4.1708376348
    6      O      -0.4611463923     0.1694033152     2.1234725606
 ----------------------------------------------------------------

    9    -409.8944600769      4.60E-05 Convergence criterion met
   10    -410.0498981672      7.31E-06 Convergence criterion met
 Total energy in the final basis set = -410.04989817

                    Orbital Energies (a.u.)
 --------------------------------------------------------------

 Alpha MOs
 -- Occupied --
-19.4091 -19.3971 -19.3597 -19.3474 -14.7643 -14.6075  -1.4468  -1.3704
 -1.2570  -1.1702  -0.8344  -0.7893  -0.7157  -0.7122  -0.6829  -0.6553
 -0.6418  -0.6264  -0.4933  -0.4927  -0.4679  -0.4640  -0.4361  -0.3294

 Beta MOs
 -- Occupied --
-19.3924 -19.3808 -19.3605 -19.3454 -14.7641 -14.5909  -1.4443  -1.3356
 -1.2548  -1.1245  -0.7951  -0.7563  -0.7109  -0.7027  -0.6727  -0.6071
 -0.5813  -0.5628  -0.4755  -0.4725  -0.4578  -0.4412

                    Cartesian Multipole Moments
 -----------------------------------------------------------------
    Charge (ESU x 10^10)
                 0.0000
    Dipole Moment (Debye)
         X      -0.0739      Y      -0.6097      Z       0.1378
       Tot       0.6294
    Quadrupole Moments (Debye-Ang)
        XX     -32.5928     XY      -0.7644     YY     -33.1510
        XZ      -1.2438     YZ      -0.6601     ZZ     -31.9019

 Total job time:  15.37s(wall), 82.15s(cpu)
        *  Thank you very much for using Q-Chem.  Have a nice day.  *
