 Q-Chem 5.3 (devel), Q-Chem, Inc., Pleasanton, CA (2020)
 Q-Chem 5.3.0 for Intel X86 EM64T Linux

User input:
--------------------------------------------------------------
$rem
   JOBTYPE  sp
   EXCHANGE   omegaB97X-D
   BASIS   6-311+G(2df,2pd)
   UNRESTRICTED   True
   max_scf_cycles   250
   geom_opt_max_cycles   1500
   basis2 6-31G*
   scf_algorithm rca_diis
   SYM_IGNORE  TRUE
   print_input   true
   geom_opt_dmax   80
   pop_mulliken false
   XC_GRID 000075000302
$end

$molecule
0 3
N       0.6992506396     1.2785886799     2.4399736765
O       0.5309596028     2.2270488258     1.7599107819
O       1.5268860785     1.0147827431     3.2368603301
N       -0.1166387032     -1.0249779445     3.2165259066
O       -0.3439480401     -1.5889240350     4.2178068611
O       -0.3515184476     0.1884708405     2.2292223338
$end
--------------------------------------------------------------

             Standard Nuclear Orientation (Angstroms)
    I     Atom           X                Y                Z
 ----------------------------------------------------------------
    1      N       0.6992506396     1.2785886799     2.4399736765
    2      O       0.5309596028     2.2270488258     1.7599107819
    3      O       1.5268860785     1.0147827431     3.2368603301
    4      N      -0.1166387032    -1.0249779445     3.2165259066
    5      O      -0.3439480401    -1.5889240350     4.2178068611
    6      O      -0.3515184476     0.1884708405     2.2292223338
 ----------------------------------------------------------------

    8    -409.9050858560      8.49E-05 Convergence criterion met
    9    -410.0606960568      7.80E-06 Convergence criterion met
 Total energy in the final basis set = -410.06069606

                    Orbital Energies (a.u.)
 --------------------------------------------------------------

 Alpha MOs
 -- Occupied --
-19.3962 -19.3958 -19.3580 -19.3518 -14.7672 -14.6285  -1.4384  -1.3616
 -1.2640  -1.1877  -0.8731  -0.7719  -0.7197  -0.7120  -0.6813  -0.6586
 -0.6342  -0.6321  -0.4904  -0.4880  -0.4690  -0.4546  -0.4013  -0.3404

 Beta MOs
 -- Occupied --
-19.3830 -19.3798 -19.3567 -19.3520 -14.7661 -14.6071  -1.4352  -1.3228
 -1.2622  -1.1507  -0.8275  -0.7437  -0.7096  -0.7035  -0.6740  -0.6098
 -0.5851  -0.5578  -0.4711  -0.4688  -0.4667  -0.4508

                    Cartesian Multipole Moments
 -----------------------------------------------------------------
    Charge (ESU x 10^10)
                -0.0000
    Dipole Moment (Debye)
         X      -0.1859      Y      -0.4099      Z       0.1263
       Tot       0.4675
    Quadrupole Moments (Debye-Ang)
        XX     -32.7060     XY      -0.8727     YY     -33.2068
        XZ      -1.8935     YZ       0.4188     ZZ     -32.1733

 Total job time:  13.58s(wall), 71.56s(cpu)
        *  Thank you very much for using Q-Chem.  Have a nice day.  *
