 Q-Chem 5.3 (devel), Q-Chem, Inc., Pleasanton, CA (2020)
 Q-Chem 5.3.0 for Intel X86 EM64T Linux

User input:
--------------------------------------------------------------
$rem
   JOBTYPE  sp
   EXCHANGE   omegaB97X-D
   BASIS   6-311+G(2df,2pd)
   UNRESTRICTED   True
   max_scf_cycles   250
   geom_opt_max_cycles   1500
   basis2 6-31G*
   scf_algorithm rca_diis
   SYM_IGNORE  TRUE
   print_input   true
   geom_opt_dmax   80
   pop_mulliken false
   XC_GRID 000075000302
$end

$molecule
0 3
N       0.7023411564     1.1599011713     2.5146047418
O       0.4100145668     2.1198912118     1.9162650051
O       1.6508604238     1.0552418892     3.2202258789
N       0.0453433352     -1.1432366954     3.1256486382
O       -0.4375265435     -1.2711366729     4.1731891373
O       -0.4260418087     0.1743282058     2.1503664886
$end
--------------------------------------------------------------

             Standard Nuclear Orientation (Angstroms)
    I     Atom           X                Y                Z
 ----------------------------------------------------------------
    1      N       0.7023411564     1.1599011713     2.5146047418
    2      O       0.4100145668     2.1198912118     1.9162650051
    3      O       1.6508604238     1.0552418892     3.2202258789
    4      N       0.0453433352    -1.1432366954     3.1256486382
    5      O      -0.4375265435    -1.2711366729     4.1731891373
    6      O      -0.4260418087     0.1743282058     2.1503664886
 ----------------------------------------------------------------

    9    -409.9052411157      4.14E-05 Convergence criterion met
   10    -410.0605341024      8.62E-06 Convergence criterion met
 Total energy in the final basis set = -410.06053410

                    Orbital Energies (a.u.)
 --------------------------------------------------------------

 Alpha MOs
 -- Occupied --
-19.4100 -19.3977 -19.3584 -19.3478 -14.7664 -14.6105  -1.4447  -1.3703
 -1.2580  -1.1773  -0.8412  -0.7867  -0.7165  -0.7126  -0.6835  -0.6553
 -0.6411  -0.6278  -0.4956  -0.4937  -0.4668  -0.4641  -0.4368  -0.3319

 Beta MOs
 -- Occupied --
-19.3942 -19.3810 -19.3590 -19.3457 -14.7662 -14.5935  -1.4419  -1.3347
 -1.2557  -1.1344  -0.8002  -0.7543  -0.7112  -0.7030  -0.6727  -0.6069
 -0.5817  -0.5622  -0.4761  -0.4732  -0.4593  -0.4434

                    Cartesian Multipole Moments
 -----------------------------------------------------------------
    Charge (ESU x 10^10)
                -0.0000
    Dipole Moment (Debye)
         X      -0.1082      Y      -0.6490      Z       0.1278
       Tot       0.6703
    Quadrupole Moments (Debye-Ang)
        XX     -32.6780     XY      -0.8078     YY     -33.2064
        XZ      -1.3676     YZ      -0.7166     ZZ     -31.9425

 Total job time:  15.46s(wall), 82.58s(cpu)
        *  Thank you very much for using Q-Chem.  Have a nice day.  *
