 Q-Chem 5.3 (devel), Q-Chem, Inc., Pleasanton, CA (2020)
 Q-Chem 5.3.0 for Intel X86 EM64T Linux

User input:
--------------------------------------------------------------
$rem
   JOBTYPE  sp
   EXCHANGE   omegaB97X-D
   BASIS   6-311+G(2df,2pd)
   UNRESTRICTED   True
   max_scf_cycles   250
   geom_opt_max_cycles   1500
   basis2 6-31G*
   scf_algorithm rca_diis
   SYM_IGNORE  TRUE
   print_input   true
   geom_opt_dmax   80
   pop_mulliken false
   XC_GRID 000075000302
$end

$molecule
0 3
N       0.8790701528     1.3237412905     2.4939563858
O       0.1605210365     2.0257666986     1.8610217867
O       1.9523856753     1.4745706994     2.9531923307
N       -0.2209256660     -1.3086606164     3.1141680849
O       -0.8324677630     -1.5528839211     4.1026266561
O       0.0064076946     0.1324549588     2.5753346459
$end
--------------------------------------------------------------

             Standard Nuclear Orientation (Angstroms)
    I     Atom           X                Y                Z
 ----------------------------------------------------------------
    1      N       0.8790701528     1.3237412905     2.4939563858
    2      O       0.1605210365     2.0257666986     1.8610217867
    3      O       1.9523856753     1.4745706994     2.9531923307
    4      N      -0.2209256660    -1.3086606164     3.1141680849
    5      O      -0.8324677630    -1.5528839211     4.1026266561
    6      O       0.0064076946     0.1324549588     2.5753346459
 ----------------------------------------------------------------

    8    -409.8913887684      5.84E-05 Convergence criterion met
   10    -410.0473625961      8.63E-06 Convergence criterion met
 Total energy in the final basis set = -410.04736260

                    Orbital Energies (a.u.)
 --------------------------------------------------------------

 Alpha MOs
 -- Occupied --
-19.3853 -19.3829 -19.3691 -19.3670 -14.7757 -14.6151  -1.4493  -1.3439
 -1.2795  -1.1790  -0.8944  -0.7691  -0.7255  -0.7204  -0.6877  -0.6389
 -0.6192  -0.5912  -0.5239  -0.4878  -0.4731  -0.4624  -0.4221  -0.3276

 Beta MOs
 -- Occupied --
-19.3743 -19.3692 -19.3656 -19.3625 -14.7747 -14.5974  -1.4439  -1.3061
 -1.2737  -1.1474  -0.8564  -0.7481  -0.7178  -0.6936  -0.6809  -0.5740
 -0.5668  -0.5426  -0.4831  -0.4767  -0.4551  -0.4439

                    Cartesian Multipole Moments
 -----------------------------------------------------------------
    Charge (ESU x 10^10)
                -0.0000
    Dipole Moment (Debye)
         X       0.4104      Y      -0.0249      Z      -0.0152
       Tot       0.4114
    Quadrupole Moments (Debye-Ang)
        XX     -33.1483     XY      -0.3954     YY     -32.5980
        XZ       0.4526     YZ       1.4090     ZZ     -32.2176

 Total job time:  14.68s(wall), 78.55s(cpu)
        *  Thank you very much for using Q-Chem.  Have a nice day.  *
