 Q-Chem 5.3 (devel), Q-Chem, Inc., Pleasanton, CA (2020)
 Q-Chem 5.3.0 for Intel X86 EM64T Linux

User input:
--------------------------------------------------------------
$rem
   JOBTYPE  sp
   EXCHANGE   omegaB97X-D
   BASIS   6-311+G(2df,2pd)
   UNRESTRICTED   True
   max_scf_cycles   250
   geom_opt_max_cycles   1500
   basis2 6-31G*
   scf_algorithm rca_diis
   SYM_IGNORE  TRUE
   print_input   true
   geom_opt_dmax   80
   pop_mulliken false
   XC_GRID 000075000302
$end

$molecule
0 3
N       0.8617642682     1.3165969676     2.4914283517
O       0.1820020024     2.0493689541     1.8499948832
O       1.9271942770     1.4299471629     2.9804447933
N       -0.1999637723     -1.3020285505     3.1188947822
O       -0.7991122620     -1.5418710395     4.1136755598
O       -0.0268933832     0.1429756152     2.5458615197
$end
--------------------------------------------------------------

             Standard Nuclear Orientation (Angstroms)
    I     Atom           X                Y                Z
 ----------------------------------------------------------------
    1      N       0.8617642682     1.3165969676     2.4914283517
    2      O       0.1820020024     2.0493689541     1.8499948832
    3      O       1.9271942770     1.4299471629     2.9804447933
    4      N      -0.1999637723    -1.3020285505     3.1188947822
    5      O      -0.7991122620    -1.5418710395     4.1136755598
    6      O      -0.0268933832     0.1429756152     2.5458615197
 ----------------------------------------------------------------

    8    -409.8969160727      5.85E-05 Convergence criterion met
   10    -410.0528611693      7.67E-06 Convergence criterion met
 Total energy in the final basis set = -410.05286117

                    Orbital Energies (a.u.)
 --------------------------------------------------------------

 Alpha MOs
 -- Occupied --
-19.3887 -19.3849 -19.3672 -19.3652 -14.7762 -14.6160  -1.4486  -1.3468
 -1.2776  -1.1820  -0.8934  -0.7696  -0.7255  -0.7202  -0.6868  -0.6410
 -0.6210  -0.5958  -0.5217  -0.4880  -0.4732  -0.4631  -0.4238  -0.3299

 Beta MOs
 -- Occupied --
-19.3776 -19.3674 -19.3673 -19.3611 -14.7753 -14.5982  -1.4435  -1.3087
 -1.2723  -1.1504  -0.8550  -0.7475  -0.7177  -0.6950  -0.6802  -0.5757
 -0.5693  -0.5441  -0.4821  -0.4760  -0.4572  -0.4463

                    Cartesian Multipole Moments
 -----------------------------------------------------------------
    Charge (ESU x 10^10)
                -0.0000
    Dipole Moment (Debye)
         X       0.3468      Y      -0.1146      Z       0.0132
       Tot       0.3655
    Quadrupole Moments (Debye-Ang)
        XX     -33.1815     XY      -0.4366     YY     -32.6764
        XZ       0.1894     YZ       1.1677     ZZ     -32.1313

 Total job time:  14.71s(wall), 78.73s(cpu)
        *  Thank you very much for using Q-Chem.  Have a nice day.  *
