 Q-Chem 5.3 (devel), Q-Chem, Inc., Pleasanton, CA (2020)
 Q-Chem 5.3.0 for Intel X86 EM64T Linux

User input:
--------------------------------------------------------------
$rem
   JOBTYPE  sp
   EXCHANGE   omegaB97X-D
   BASIS   6-311+G(2df,2pd)
   UNRESTRICTED   True
   max_scf_cycles   250
   geom_opt_max_cycles   1500
   basis2 6-31G*
   scf_algorithm rca_diis
   SYM_IGNORE  TRUE
   print_input   true
   geom_opt_dmax   80
   pop_mulliken false
   XC_GRID 000075000302
$end

$molecule
0 3
N       0.7285465182     1.2404791634     2.4792054389
O       0.3372034116     2.1641428949     1.8395670805
O       1.6880397448     1.0887092385     3.1528511416
N       -0.0236226558     -1.1991257861     3.1378181405
O       -0.5503676682     -1.3914250151     4.1672612573
O       -0.2348082206     0.1922086143     2.3235968313
$end
--------------------------------------------------------------

             Standard Nuclear Orientation (Angstroms)
    I     Atom           X                Y                Z
 ----------------------------------------------------------------
    1      N       0.7285465182     1.2404791634     2.4792054389
    2      O       0.3372034116     2.1641428949     1.8395670805
    3      O       1.6880397448     1.0887092385     3.1528511416
    4      N      -0.0236226558    -1.1991257861     3.1378181405
    5      O      -0.5503676682    -1.3914250151     4.1672612573
    6      O      -0.2348082206     0.1922086143     2.3235968313
 ----------------------------------------------------------------

    8    -409.9240901869      5.56E-05 Convergence criterion met
   10    -410.0794965552      5.40E-06 Convergence criterion met
 Total energy in the final basis set = -410.07949656

                    Orbital Energies (a.u.)
 --------------------------------------------------------------

 Alpha MOs
 -- Occupied --
-19.4086 -19.3975 -19.3535 -19.3528 -14.7751 -14.6207  -1.4452  -1.3653
 -1.2638  -1.2030  -0.8802  -0.7754  -0.7218  -0.7187  -0.6843  -0.6539
 -0.6312  -0.6274  -0.5058  -0.4955  -0.4673  -0.4630  -0.4350  -0.3405

 Beta MOs
 -- Occupied --
-19.3960 -19.3794 -19.3533 -19.3509 -14.7748 -14.6027  -1.4408  -1.3267
 -1.2609  -1.1701  -0.8377  -0.7446  -0.7167  -0.7033  -0.6749  -0.5974
 -0.5812  -0.5559  -0.4782  -0.4722  -0.4642  -0.4501

                    Cartesian Multipole Moments
 -----------------------------------------------------------------
    Charge (ESU x 10^10)
                -0.0000
    Dipole Moment (Debye)
         X      -0.1323      Y      -0.6691      Z       0.0955
       Tot       0.6887
    Quadrupole Moments (Debye-Ang)
        XX     -33.1585     XY      -0.8311     YY     -33.2457
        XZ      -1.5349     YZ      -0.4811     ZZ     -32.0144

 Total job time:  15.36s(wall), 82.00s(cpu)
        *  Thank you very much for using Q-Chem.  Have a nice day.  *
