 Q-Chem 5.3 (devel), Q-Chem, Inc., Pleasanton, CA (2020)
 Q-Chem 5.3.0 for Intel X86 EM64T Linux

User input:
--------------------------------------------------------------
$rem
   JOBTYPE  sp
   EXCHANGE   omegaB97X-D
   BASIS   6-311+G(2df,2pd)
   UNRESTRICTED   True
   max_scf_cycles   250
   geom_opt_max_cycles   1500
   basis2 6-31G*
   scf_algorithm rca_diis
   SYM_IGNORE  TRUE
   print_input   true
   geom_opt_dmax   80
   pop_mulliken false
   XC_GRID 000075000302
$end

$molecule
0 3
N       0.7079968192     1.1263199380     2.5371293893
O       0.4216495498     2.0810734693     1.9489540343
O       1.6698282630     1.0848131944     3.2341027982
N       0.0555627384     -1.1285601946     3.1159174845
O       -0.4140564322     -1.2335497948     4.1676792157
O       -0.4959898082     0.1648924976     2.0965169680
$end
--------------------------------------------------------------

             Standard Nuclear Orientation (Angstroms)
    I     Atom           X                Y                Z
 ----------------------------------------------------------------
    1      N       0.7079968192     1.1263199380     2.5371293893
    2      O       0.4216495498     2.0810734693     1.9489540343
    3      O       1.6698282630     1.0848131944     3.2341027982
    4      N       0.0555627384    -1.1285601946     3.1159174845
    5      O      -0.4140564322    -1.2335497948     4.1676792157
    6      O      -0.4959898082     0.1648924976     2.0965169680
 ----------------------------------------------------------------

    9    -409.8818827299      5.11E-05 Convergence criterion met
   11    -410.0375259002      6.56E-06 Convergence criterion met
 Total energy in the final basis set = -410.03752590

                    Orbital Energies (a.u.)
 --------------------------------------------------------------

 Alpha MOs
 -- Occupied --
-19.4081 -19.3963 -19.3613 -19.3466 -14.7623 -14.6043  -1.4494  -1.3705
 -1.2558  -1.1636  -0.8282  -0.7917  -0.7150  -0.7121  -0.6821  -0.6552
 -0.6421  -0.6248  -0.4919  -0.4908  -0.4695  -0.4637  -0.4349  -0.3268

 Beta MOs
 -- Occupied --
-19.3905 -19.3804 -19.3621 -19.3447 -14.7621 -14.5879  -1.4474  -1.3365
 -1.2539  -1.1148  -0.7913  -0.7579  -0.7111  -0.7026  -0.6728  -0.6070
 -0.5808  -0.5631  -0.4750  -0.4713  -0.4562  -0.4386

                    Cartesian Multipole Moments
 -----------------------------------------------------------------
    Charge (ESU x 10^10)
                 0.0000
    Dipole Moment (Debye)
         X      -0.0435      Y      -0.5629      Z       0.1401
       Tot       0.5817
    Quadrupole Moments (Debye-Ang)
        XX     -32.5198     XY      -0.7238     YY     -33.0864
        XZ      -1.1346     YZ      -0.5872     ZZ     -31.9028

 Total job time:  16.28s(wall), 87.65s(cpu)
        *  Thank you very much for using Q-Chem.  Have a nice day.  *
