 Q-Chem 5.3 (devel), Q-Chem, Inc., Pleasanton, CA (2020)
 Q-Chem 5.3.0 for Intel X86 EM64T Linux

User input:
--------------------------------------------------------------
$rem
   JOBTYPE  sp
   EXCHANGE   omegaB97X-D
   BASIS   6-311+G(2df,2pd)
   UNRESTRICTED   True
   max_scf_cycles   250
   geom_opt_max_cycles   1500
   basis2 6-31G*
   scf_algorithm rca_diis
   SYM_IGNORE  TRUE
   print_input   true
   geom_opt_dmax   80
   pop_mulliken false
   XC_GRID 000075000302
$end

$molecule
0 3
N       0.7390856470     1.1642421775     2.5331286296
O       0.3653530679     2.2095585437     1.8366730170
O       1.5657373708     0.9901824737     3.1672828447
N       0.0334070478     -1.1473010758     3.1404390490
O       -0.4715271064     -1.3213338088     4.1696429451
O       -0.2870648971     0.1996407997     2.2531334047
$end
--------------------------------------------------------------

             Standard Nuclear Orientation (Angstroms)
    I     Atom           X                Y                Z
 ----------------------------------------------------------------
    1      N       0.7390856470     1.1642421775     2.5331286296
    2      O       0.3653530679     2.2095585437     1.8366730170
    3      O       1.5657373708     0.9901824737     3.1672828447
    4      N       0.0334070478    -1.1473010758     3.1404390490
    5      O      -0.4715271064    -1.3213338088     4.1696429451
    6      O      -0.2870648971     0.1996407997     2.2531334047
 ----------------------------------------------------------------

    8    -409.8792832485      8.57E-05 Convergence criterion met
   14    -410.0409100191      5.95E-06 Convergence criterion met
 Total energy in the final basis set = -410.04091002

                    Orbital Energies (a.u.)
 --------------------------------------------------------------

 Alpha MOs
 -- Occupied --
-19.4071 -19.3955 -19.3926 -19.3212 -14.7727 -14.6137  -1.5164  -1.3737
 -1.2550  -1.1716  -0.8659  -0.7821  -0.7508  -0.7416  -0.7033  -0.6573
 -0.6388  -0.6331  -0.5054  -0.4966  -0.4710  -0.4454  -0.4196  -0.3359

 Beta MOs
 -- Occupied --
-19.3942 -19.3930 -19.3778 -19.3180 -14.7725 -14.5962  -1.5154  -1.3365
 -1.2380  -1.1481  -0.8255  -0.7544  -0.7503  -0.7263  -0.6884  -0.6074
 -0.5845  -0.5618  -0.4889  -0.4810  -0.4389  -0.4246

                    Cartesian Multipole Moments
 -----------------------------------------------------------------
    Charge (ESU x 10^10)
                -0.0000
    Dipole Moment (Debye)
         X       0.7204      Y      -1.1553      Z       0.8524
       Tot       1.6063
    Quadrupole Moments (Debye-Ang)
        XX     -31.2394     XY      -0.1728     YY     -35.3829
        XZ       1.4871     YZ      -0.4431     ZZ     -28.3396

 Total job time:  19.06s(wall), 104.04s(cpu)
        *  Thank you very much for using Q-Chem.  Have a nice day.  *
