 Q-Chem 5.3 (devel), Q-Chem, Inc., Pleasanton, CA (2020)
 Q-Chem 5.3.0 for Intel X86 EM64T Linux

User input:
--------------------------------------------------------------
$rem
   JOBTYPE  sp
   EXCHANGE   omegaB97X-D
   BASIS   6-311+G(2df,2pd)
   UNRESTRICTED   True
   max_scf_cycles   250
   geom_opt_max_cycles   1500
   basis2 6-31G*
   scf_algorithm rca_diis
   SYM_IGNORE  TRUE
   print_input   true
   geom_opt_dmax   80
   pop_mulliken false
   XC_GRID 000075000302
$end

$molecule
0 3
N       0.6629392900     1.2449603220     2.4505037533
O       0.3293635206     2.2226640804     1.8056344184
O       1.5293394000     0.8713764995     3.1577659724
N       0.0425538155     -1.1228072255     3.1467085379
O       -0.5160253142     -1.3570248937     4.1574096404
O       -0.1031795819     0.2358203272     2.3822775676
$end
--------------------------------------------------------------

             Standard Nuclear Orientation (Angstroms)
    I     Atom           X                Y                Z
 ----------------------------------------------------------------
    1      N       0.6629392900     1.2449603220     2.4505037533
    2      O       0.3293635206     2.2226640804     1.8056344184
    3      O       1.5293394000     0.8713764995     3.1577659724
    4      N       0.0425538155    -1.1228072255     3.1467085379
    5      O      -0.5160253142    -1.3570248937     4.1574096404
    6      O      -0.1031795819     0.2358203272     2.3822775676
 ----------------------------------------------------------------

    8    -409.8750748855      6.43E-05 Convergence criterion met
   11    -410.0318450361      9.72E-06 Convergence criterion met
 Total energy in the final basis set = -410.03184504

                    Orbital Energies (a.u.)
 --------------------------------------------------------------

 Alpha MOs
 -- Occupied --
-19.4131 -19.3980 -19.3535 -19.3315 -14.7810 -14.6257  -1.4855  -1.3639
 -1.2681  -1.2306  -0.9260  -0.7672  -0.7433  -0.7258  -0.6936  -0.6575
 -0.6318  -0.6138  -0.5068  -0.4987  -0.4643  -0.4555  -0.4310  -0.3440

 Beta MOs
 -- Occupied --
-19.4007 -19.3800 -19.3515 -19.3308 -14.7809 -14.6071  -1.4758  -1.3254
 -1.2627  -1.2076  -0.8851  -0.7395  -0.7352  -0.7064  -0.6774  -0.6003
 -0.5842  -0.5474  -0.4822  -0.4687  -0.4619  -0.4285

                    Cartesian Multipole Moments
 -----------------------------------------------------------------
    Charge (ESU x 10^10)
                -0.0000
    Dipole Moment (Debye)
         X      -0.3835      Y      -0.8103      Z      -0.0099
       Tot       0.8966
    Quadrupole Moments (Debye-Ang)
        XX     -33.5089     XY      -1.2281     YY     -33.7510
        XZ      -2.3272     YZ      -0.6839     ZZ     -32.5212

 Total job time:  16.33s(wall), 88.06s(cpu)
        *  Thank you very much for using Q-Chem.  Have a nice day.  *
