 Q-Chem 5.3 (devel), Q-Chem, Inc., Pleasanton, CA (2020)
 Q-Chem 5.3.0 for Intel X86 EM64T Linux

User input:
--------------------------------------------------------------
$rem
   JOBTYPE  sp
   EXCHANGE   omegaB97X-D
   BASIS   6-311+G(2df,2pd)
   UNRESTRICTED   True
   max_scf_cycles   250
   geom_opt_max_cycles   1500
   basis2 6-31G*
   scf_algorithm rca_diis
   SYM_IGNORE  TRUE
   print_input   true
   geom_opt_dmax   80
   pop_mulliken false
   XC_GRID 000075000302
$end

$molecule
0 3
N       0.6460324606     1.1565570424     2.4733023247
O       0.3725005109     2.2411298515     1.8264736279
O       1.6561908067     0.9809107807     3.2313386594
N       0.0319618637     -1.1483225320     3.1401064142
O       -0.4738329335     -1.3257256446     4.1711168854
O       -0.2878615783     0.1904396119     2.2579619784
$end
--------------------------------------------------------------

             Standard Nuclear Orientation (Angstroms)
    I     Atom           X                Y                Z
 ----------------------------------------------------------------
    1      N       0.6460324606     1.1565570424     2.4733023247
    2      O       0.3725005109     2.2411298515     1.8264736279
    3      O       1.6561908067     0.9809107807     3.2313386594
    4      N       0.0319618637    -1.1483225320     3.1401064142
    5      O      -0.4738329335    -1.3257256446     4.1711168854
    6      O      -0.2878615783     0.1904396119     2.2579619784
 ----------------------------------------------------------------

    9    -409.9064972538      4.45E-05 Convergence criterion met
   14    -410.0589219857      8.76E-06 Convergence criterion met
 Total energy in the final basis set = -410.05892199

                    Orbital Energies (a.u.)
 --------------------------------------------------------------

 Alpha MOs
 -- Occupied --
-19.4426 -19.4134 -19.3479 -19.3471 -14.7721 -14.6339  -1.4043  -1.3779
 -1.2228  -1.1857  -0.8965  -0.7917  -0.7162  -0.6941  -0.6915  -0.6548
 -0.6411  -0.6290  -0.5072  -0.5004  -0.4602  -0.4433  -0.4327  -0.3515

 Beta MOs
 -- Occupied --
-19.4297 -19.3955 -19.3475 -19.3451 -14.7720 -14.6153  -1.3880  -1.3458
 -1.2006  -1.1786  -0.8531  -0.7547  -0.6963  -0.6855  -0.6654  -0.6051
 -0.5935  -0.5697  -0.4898  -0.4678  -0.4420  -0.4289

                    Cartesian Multipole Moments
 -----------------------------------------------------------------
    Charge (ESU x 10^10)
                -0.0000
    Dipole Moment (Debye)
         X      -0.7740      Y      -1.6423      Z       0.1765
       Tot       1.8241
    Quadrupole Moments (Debye-Ang)
        XX     -33.7490     XY      -1.5811     YY     -34.6715
        XZ      -3.2961     YZ      -3.1843     ZZ     -31.7362

 Total job time:  19.16s(wall), 104.88s(cpu)
        *  Thank you very much for using Q-Chem.  Have a nice day.  *
