 Q-Chem 5.3 (devel), Q-Chem, Inc., Pleasanton, CA (2020)
 Q-Chem 5.3.0 for Intel X86 EM64T Linux

User input:
--------------------------------------------------------------
$rem
   JOBTYPE  sp
   EXCHANGE   omegaB97X-D
   BASIS   6-311+G(2df,2pd)
   UNRESTRICTED   True
   max_scf_cycles   250
   geom_opt_max_cycles   1500
   basis2 6-31G*
   scf_algorithm rca_diis
   SYM_IGNORE  TRUE
   print_input   true
   geom_opt_dmax   80
   pop_mulliken false
   XC_GRID 000075000302
$end

$molecule
0 3
N       0.6882511795     1.2071587864     2.4785387003
O       0.3741461443     2.1828077995     1.8657048934
O       1.6054586188     0.9821275307     3.1894002933
N       0.0486421046     -1.1499326937     3.1196435507
O       -0.4923957828     -1.3242601488     4.1979314173
O       -0.2791111343     0.1970878358     2.2490810350
$end
--------------------------------------------------------------

             Standard Nuclear Orientation (Angstroms)
    I     Atom           X                Y                Z
 ----------------------------------------------------------------
    1      N       0.6882511795     1.2071587864     2.4785387003
    2      O       0.3741461443     2.1828077995     1.8657048934
    3      O       1.6054586188     0.9821275307     3.1894002933
    4      N       0.0486421046    -1.1499326937     3.1196435507
    5      O      -0.4923957828    -1.3242601488     4.1979314173
    6      O      -0.2791111343     0.1970878358     2.2490810350
 ----------------------------------------------------------------

    8    -409.9245386776      6.29E-05 Convergence criterion met
   10    -410.0781622967      6.91E-06 Convergence criterion met
 Total energy in the final basis set = -410.07816230

                    Orbital Energies (a.u.)
 --------------------------------------------------------------

 Alpha MOs
 -- Occupied --
-19.4176 -19.4037 -19.3510 -19.3507 -14.7760 -14.6283  -1.4463  -1.3366
 -1.2610  -1.2100  -0.8831  -0.7799  -0.7203  -0.7201  -0.6857  -0.6480
 -0.6235  -0.6200  -0.5033  -0.4989  -0.4661  -0.4646  -0.4410  -0.3573

 Beta MOs
 -- Occupied --
-19.4057 -19.3843 -19.3510 -19.3488 -14.7758 -14.6103  -1.4420  -1.2950
 -1.2585  -1.1792  -0.8377  -0.7482  -0.7181  -0.7057  -0.6748  -0.5986
 -0.5706  -0.5407  -0.4799  -0.4740  -0.4635  -0.4482

                    Cartesian Multipole Moments
 -----------------------------------------------------------------
    Charge (ESU x 10^10)
                -0.0000
    Dipole Moment (Debye)
         X      -0.1987      Y      -0.7068      Z       0.0104
       Tot       0.7343
    Quadrupole Moments (Debye-Ang)
        XX     -33.0801     XY      -0.9526     YY     -33.7135
        XZ      -1.7441     YZ      -0.5453     ZZ     -32.5890

 Total job time:  15.54s(wall), 83.04s(cpu)
        *  Thank you very much for using Q-Chem.  Have a nice day.  *
