 Q-Chem 5.3 (devel), Q-Chem, Inc., Pleasanton, CA (2020)
 Q-Chem 5.3.0 for Intel X86 EM64T Linux

User input:
--------------------------------------------------------------
$rem
   JOBTYPE  sp
   EXCHANGE   omegaB97X-D
   BASIS   6-311+G(2df,2pd)
   UNRESTRICTED   True
   max_scf_cycles   250
   geom_opt_max_cycles   1500
   basis2 6-31G*
   scf_algorithm rca_diis
   SYM_IGNORE  TRUE
   print_input   true
   geom_opt_dmax   80
   pop_mulliken false
   XC_GRID 000075000302
$end

$molecule
0 3
N       0.6582428647     1.2473198915     2.4459530023
O       0.3182976172     2.2269101248     1.7968912492
O       1.5116713007     0.8465981063     3.1527030918
N       0.0455954190     -1.1125876994     3.1460966793
O       -0.5206002081     -1.3582786628     4.1521148353
O       -0.0682158634     0.2450273494     2.4065410320
$end
--------------------------------------------------------------

             Standard Nuclear Orientation (Angstroms)
    I     Atom           X                Y                Z
 ----------------------------------------------------------------
    1      N       0.6582428647     1.2473198915     2.4459530023
    2      O       0.3182976172     2.2269101248     1.7968912492
    3      O       1.5116713007     0.8465981063     3.1527030918
    4      N       0.0455954190    -1.1125876994     3.1460966793
    5      O      -0.5206002081    -1.3582786628     4.1521148353
    6      O      -0.0682158634     0.2450273494     2.4065410320
 ----------------------------------------------------------------

    8    -409.8492509622      7.19E-05 Convergence criterion met
   11    -410.0067630003      7.22E-06 Convergence criterion met
 Total energy in the final basis set = -410.00676300

                    Orbital Energies (a.u.)
 --------------------------------------------------------------

 Alpha MOs
 -- Occupied --
-19.4150 -19.3923 -19.3548 -19.3340 -14.7841 -14.6206  -1.5050  -1.3584
 -1.2729  -1.2324  -0.9362  -0.7638  -0.7535  -0.7290  -0.6986  -0.6559
 -0.6269  -0.6090  -0.5075  -0.4989  -0.4670  -0.4556  -0.4287  -0.3400

 Beta MOs
 -- Occupied --
-19.4022 -19.3748 -19.3531 -19.3321 -14.7841 -14.6023  -1.4936  -1.3209
 -1.2670  -1.2102  -0.8976  -0.7493  -0.7358  -0.7052  -0.6807  -0.5998
 -0.5819  -0.5421  -0.4835  -0.4705  -0.4635  -0.4207

                    Cartesian Multipole Moments
 -----------------------------------------------------------------
    Charge (ESU x 10^10)
                 0.0000
    Dipole Moment (Debye)
         X      -0.3305      Y      -0.6428      Z      -0.0830
       Tot       0.7275
    Quadrupole Moments (Debye-Ang)
        XX     -33.4511     XY      -1.1967     YY     -33.8966
        XZ      -2.1024     YZ      -0.0826     ZZ     -32.9591

 Total job time:  16.50s(wall), 88.86s(cpu)
        *  Thank you very much for using Q-Chem.  Have a nice day.  *
