 Q-Chem 5.3 (devel), Q-Chem, Inc., Pleasanton, CA (2020)
 Q-Chem 5.3.0 for Intel X86 EM64T Linux

User input:
--------------------------------------------------------------
$rem
   JOBTYPE  sp
   EXCHANGE   omegaB97X-D
   BASIS   6-311+G(2df,2pd)
   UNRESTRICTED   True
   max_scf_cycles   250
   geom_opt_max_cycles   1500
   basis2 6-31G*
   scf_algorithm rca_diis
   SYM_IGNORE  TRUE
   print_input   true
   geom_opt_dmax   80
   pop_mulliken false
   XC_GRID 000075000302
$end

$molecule
0 3
N       0.6726426011     1.1402332643     2.5200806935
O       0.2639899573     2.1105795619     1.9458874593
O       1.6480259070     0.9520476606     3.1698639281
N       0.1296364307     -1.2477739637     3.1093038513
O       -0.5277362821     -1.0535844029     4.0524110435
O       -0.2415674840     0.1934869897     2.3027529142
$end
--------------------------------------------------------------

             Standard Nuclear Orientation (Angstroms)
    I     Atom           X                Y                Z
 ----------------------------------------------------------------
    1      N       0.6726426011     1.1402332643     2.5200806935
    2      O       0.2639899573     2.1105795619     1.9458874593
    3      O       1.6480259070     0.9520476606     3.1698639281
    4      N       0.1296364307    -1.2477739637     3.1093038513
    5      O      -0.5277362821    -1.0535844029     4.0524110435
    6      O      -0.2415674840     0.1934869897     2.3027529142
 ----------------------------------------------------------------

    8    -409.9144300486      5.62E-05 Convergence criterion met
   12    -410.0696469078      3.74E-06 Convergence criterion met
 Total energy in the final basis set = -410.06964691

                    Orbital Energies (a.u.)
 --------------------------------------------------------------

 Alpha MOs
 -- Occupied --
-19.4175 -19.4019 -19.3549 -19.3494 -14.7809 -14.6023  -1.4649  -1.3771
 -1.2678  -1.2229  -0.8656  -0.7850  -0.7339  -0.7246  -0.6961  -0.6555
 -0.6316  -0.6193  -0.5209  -0.4995  -0.4705  -0.4678  -0.4436  -0.3334

 Beta MOs
 -- Occupied --
-19.4036 -19.3826 -19.3500 -19.3498 -14.7811 -14.5882  -1.4567  -1.3399
 -1.2621  -1.1921  -0.8244  -0.7510  -0.7291  -0.7101  -0.6790  -0.6005
 -0.5803  -0.5581  -0.4831  -0.4750  -0.4628  -0.4457

                    Cartesian Multipole Moments
 -----------------------------------------------------------------
    Charge (ESU x 10^10)
                -0.0000
    Dipole Moment (Debye)
         X      -0.2737      Y      -0.6984      Z       0.0862
       Tot       0.7551
    Quadrupole Moments (Debye-Ang)
        XX     -33.3917     XY      -0.5808     YY     -33.3422
        XZ      -1.8477     YZ      -1.3054     ZZ     -31.4639

 Total job time:  18.16s(wall), 98.31s(cpu)
        *  Thank you very much for using Q-Chem.  Have a nice day.  *
