 Q-Chem 5.3 (devel), Q-Chem, Inc., Pleasanton, CA (2020)
 Q-Chem 5.3.0 for Intel X86 EM64T Linux

User input:
--------------------------------------------------------------
$rem
   JOBTYPE  sp
   EXCHANGE   omegaB97X-D
   BASIS   6-311+G(2df,2pd)
   UNRESTRICTED   True
   max_scf_cycles   250
   geom_opt_max_cycles   1500
   basis2 6-31G*
   scf_algorithm rca_diis
   SYM_IGNORE  TRUE
   print_input   true
   geom_opt_dmax   80
   pop_mulliken false
   XC_GRID 000075000302
$end

$molecule
0 3
N       0.7550628357     1.2854081300     2.4908391415
O       0.3249631916     2.1796038745     1.8278785682
O       1.6178048379     0.9258883931     3.2316017517
N       0.0415140102     -1.1665704389     3.1389480520
O       -0.4732939280     -1.3129700056     4.1793809243
O       -0.3210598173     0.1836291567     2.2316514523
$end
--------------------------------------------------------------

             Standard Nuclear Orientation (Angstroms)
    I     Atom           X                Y                Z
 ----------------------------------------------------------------
    1      N       0.7550628357     1.2854081300     2.4908391415
    2      O       0.3249631916     2.1796038745     1.8278785682
    3      O       1.6178048379     0.9258883931     3.2316017517
    4      N       0.0415140102    -1.1665704389     3.1389480520
    5      O      -0.4732939280    -1.3129700056     4.1793809243
    6      O      -0.3210598173     0.1836291567     2.2316514523
 ----------------------------------------------------------------

    9    -409.9125134635      3.92E-05 Convergence criterion met
    9    -410.0668154462      7.10E-06 Convergence criterion met
 Total energy in the final basis set = -410.06681545

                    Orbital Energies (a.u.)
 --------------------------------------------------------------

 Alpha MOs
 -- Occupied --
-19.3840 -19.3791 -19.3791 -19.3785 -14.7802 -14.6030  -1.4320  -1.3521
 -1.2847  -1.1512  -0.8408  -0.7804  -0.7228  -0.7127  -0.6896  -0.6488
 -0.6249  -0.6169  -0.4988  -0.4873  -0.4697  -0.4638  -0.4298  -0.3238

 Beta MOs
 -- Occupied --
-19.3796 -19.3767 -19.3663 -19.3652 -14.7796 -14.5859  -1.4290  -1.3146
 -1.2829  -1.1109  -0.8055  -0.7506  -0.7113  -0.7019  -0.6867  -0.5940
 -0.5674  -0.5474  -0.4869  -0.4769  -0.4522  -0.4476

                    Cartesian Multipole Moments
 -----------------------------------------------------------------
    Charge (ESU x 10^10)
                -0.0000
    Dipole Moment (Debye)
         X       0.5108      Y       0.2795      Z       0.0538
       Tot       0.5847
    Quadrupole Moments (Debye-Ang)
        XX     -32.2296     XY      -0.0646     YY     -31.8527
        XZ       0.4070     YZ       1.7462     ZZ     -32.4872

 Total job time:  13.84s(wall), 73.06s(cpu)
        *  Thank you very much for using Q-Chem.  Have a nice day.  *
