 Q-Chem 5.3 (devel), Q-Chem, Inc., Pleasanton, CA (2020)
 Q-Chem 5.3.0 for Intel X86 EM64T Linux

User input:
--------------------------------------------------------------
$rem
   JOBTYPE  sp
   EXCHANGE   omegaB97X-D
   BASIS   6-311+G(2df,2pd)
   UNRESTRICTED   True
   max_scf_cycles   250
   geom_opt_max_cycles   1500
   basis2 6-31G*
   scf_algorithm rca_diis
   SYM_IGNORE  TRUE
   print_input   true
   geom_opt_dmax   80
   pop_mulliken false
   XC_GRID 000075000302
$end

$molecule
0 3
N       0.6598209027     1.3091997295     2.4363603782
O       0.4817964388     2.3508003260     1.9178165870
O       1.5618957939     0.9963369183     3.1058991770
N       0.0943968385     -1.3139239691     3.1683504551
O       -0.5413405510     -1.2435293947     4.1627963089
O       -0.3115782929     -0.0038945002     2.3090769838
$end
--------------------------------------------------------------

             Standard Nuclear Orientation (Angstroms)
    I     Atom           X                Y                Z
 ----------------------------------------------------------------
    1      N       0.6598209027     1.3091997295     2.4363603782
    2      O       0.4817964388     2.3508003260     1.9178165870
    3      O       1.5618957939     0.9963369183     3.1058991770
    4      N       0.0943968385    -1.3139239691     3.1683504551
    5      O      -0.5413405510    -1.2435293947     4.1627963089
    6      O      -0.3115782929    -0.0038945002     2.3090769838
 ----------------------------------------------------------------

    8    -409.8918511200      9.87E-05 Convergence criterion met
   11    -410.0477974366      6.32E-06 Convergence criterion met
 Total energy in the final basis set = -410.04779744

                    Orbital Energies (a.u.)
 --------------------------------------------------------------

 Alpha MOs
 -- Occupied --
-19.4039 -19.3883 -19.3683 -19.3479 -14.7607 -14.6157  -1.4422  -1.3664
 -1.2634  -1.1520  -0.8535  -0.7785  -0.7175  -0.7094  -0.6772  -0.6563
 -0.6359  -0.6261  -0.4922  -0.4760  -0.4664  -0.4587  -0.4446  -0.3360

 Beta MOs
 -- Occupied --
-19.3833 -19.3756 -19.3670 -19.3482 -14.7594 -14.6013  -1.4398  -1.3257
 -1.2614  -1.1108  -0.8146  -0.7481  -0.7078  -0.7042  -0.6735  -0.5953
 -0.5783  -0.5609  -0.4714  -0.4624  -0.4499  -0.4383

                    Cartesian Multipole Moments
 -----------------------------------------------------------------
    Charge (ESU x 10^10)
                 0.0000
    Dipole Moment (Debye)
         X      -0.1092      Y      -0.3017      Z       0.1212
       Tot       0.3430
    Quadrupole Moments (Debye-Ang)
        XX     -33.0890     XY      -0.4935     YY     -32.1459
        XZ      -1.3074     YZ      -0.4525     ZZ     -31.3936

 Total job time:  15.58s(wall), 83.97s(cpu)
        *  Thank you very much for using Q-Chem.  Have a nice day.  *
