 Q-Chem 5.3 (devel), Q-Chem, Inc., Pleasanton, CA (2020)
 Q-Chem 5.3.0 for Intel X86 EM64T Linux

User input:
--------------------------------------------------------------
$rem
   JOBTYPE  sp
   EXCHANGE   omegaB97X-D
   BASIS   6-311+G(2df,2pd)
   UNRESTRICTED   True
   max_scf_cycles   250
   geom_opt_max_cycles   1500
   basis2 6-31G*
   scf_algorithm rca_diis
   SYM_IGNORE  TRUE
   print_input   true
   geom_opt_dmax   80
   pop_mulliken false
   XC_GRID 000075000302
$end

$molecule
0 3
N       0.8069564628     1.2895350812     2.4849626566
O       0.2482485849     2.1096036661     1.8307978275
O       1.8374520058     1.2895201046     3.0590961859
N       -0.1305350755     -1.2701677480     3.1299451163
O       -0.6951084289     -1.4929032651     4.1418847536
O       -0.1220224189     0.1694012711     2.4536133501
$end
--------------------------------------------------------------

             Standard Nuclear Orientation (Angstroms)
    I     Atom           X                Y                Z
 ----------------------------------------------------------------
    1      N       0.8069564628     1.2895350812     2.4849626566
    2      O       0.2482485849     2.1096036661     1.8307978275
    3      O       1.8374520058     1.2895201046     3.0590961859
    4      N      -0.1305350755    -1.2701677480     3.1299451163
    5      O      -0.6951084289    -1.4929032651     4.1418847536
    6      O      -0.1220224189     0.1694012711     2.4536133501
 ----------------------------------------------------------------

    8    -409.9112841605      5.97E-05 Convergence criterion met
   10    -410.0670695570      6.08E-06 Convergence criterion met
 Total energy in the final basis set = -410.06706956

                    Orbital Energies (a.u.)
 --------------------------------------------------------------

 Alpha MOs
 -- Occupied --
-19.3984 -19.3908 -19.3612 -19.3601 -14.7766 -14.6187  -1.4468  -1.3553
 -1.2717  -1.1913  -0.8891  -0.7717  -0.7247  -0.7195  -0.6846  -0.6471
 -0.6262  -0.6102  -0.5149  -0.4906  -0.4718  -0.4639  -0.4288  -0.3358

 Beta MOs
 -- Occupied --
-19.3867 -19.3728 -19.3615 -19.3567 -14.7760 -14.6007  -1.4423  -1.3165
 -1.2676  -1.1594  -0.8491  -0.7458  -0.7173  -0.6991  -0.6780  -0.5832
 -0.5757  -0.5493  -0.4795  -0.4738  -0.4625  -0.4505

                    Cartesian Multipole Moments
 -----------------------------------------------------------------
    Charge (ESU x 10^10)
                -0.0000
    Dipole Moment (Debye)
         X       0.1374      Y      -0.3713      Z       0.0719
       Tot       0.4024
    Quadrupole Moments (Debye-Ang)
        XX     -33.2363     XY      -0.5815     YY     -32.9170
        XZ      -0.6136     YZ       0.4444     ZZ     -31.9913

 Total job time:  14.90s(wall), 79.85s(cpu)
        *  Thank you very much for using Q-Chem.  Have a nice day.  *
