 Q-Chem 5.3 (devel), Q-Chem, Inc., Pleasanton, CA (2020)
 Q-Chem 5.3.0 for Intel X86 EM64T Linux

User input:
--------------------------------------------------------------
$rem
   JOBTYPE  sp
   EXCHANGE   omegaB97X-D
   BASIS   6-311+G(2df,2pd)
   UNRESTRICTED   True
   max_scf_cycles   250
   geom_opt_max_cycles   1500
   basis2 6-31G*
   scf_algorithm rca_diis
   SYM_IGNORE  TRUE
   print_input   true
   geom_opt_dmax   80
   pop_mulliken false
   XC_GRID 000075000302
$end

$molecule
0 3
N       0.7683831916     1.2668426791     2.4816513824
O       0.2929841968     2.1406346325     1.8301124092
O       1.7666487182     1.1909035835     3.1079123194
N       -0.0790252482     -1.2387840695     3.1348099746
O       -0.6233083145     -1.4472316914     4.1563650712
O       -0.1806914139     0.1826239757     2.3894487332
$end
--------------------------------------------------------------

             Standard Nuclear Orientation (Angstroms)
    I     Atom           X                Y                Z
 ----------------------------------------------------------------
    1      N       0.7683831916     1.2668426791     2.4816513824
    2      O       0.2929841968     2.1406346325     1.8301124092
    3      O       1.7666487182     1.1909035835     3.1079123194
    4      N      -0.0790252482    -1.2387840695     3.1348099746
    5      O      -0.6233083145    -1.4472316914     4.1563650712
    6      O      -0.1806914139     0.1826239757     2.3894487332
 ----------------------------------------------------------------

    8    -409.9187770718      5.88E-05 Convergence criterion met
   10    -410.0743898503      5.62E-06 Convergence criterion met
 Total energy in the final basis set = -410.07438985

                    Orbital Energies (a.u.)
 --------------------------------------------------------------

 Alpha MOs
 -- Occupied --
-19.4040 -19.3944 -19.3571 -19.3568 -14.7761 -14.6200  -1.4459  -1.3605
 -1.2677  -1.1973  -0.8851  -0.7734  -0.7234  -0.7191  -0.6840  -0.6508
 -0.6290  -0.6194  -0.5103  -0.4931  -0.4697  -0.4637  -0.4319  -0.3387

 Beta MOs
 -- Occupied --
-19.3918 -19.3763 -19.3575 -19.3538 -14.7757 -14.6020  -1.4416  -1.3218
 -1.2643  -1.1650  -0.8439  -0.7450  -0.7170  -0.7014  -0.6764  -0.5901
 -0.5787  -0.5528  -0.4784  -0.4728  -0.4643  -0.4511

                    Cartesian Multipole Moments
 -----------------------------------------------------------------
    Charge (ESU x 10^10)
                -0.0000
    Dipole Moment (Debye)
         X      -0.0034      Y      -0.5274      Z       0.0904
       Tot       0.5350
    Quadrupole Moments (Debye-Ang)
        XX     -33.2211     XY      -0.6972     YY     -33.0793
        XZ      -1.1105     YZ      -0.0256     ZZ     -31.9811

 Total job time:  15.17s(wall), 81.22s(cpu)
        *  Thank you very much for using Q-Chem.  Have a nice day.  *
