 Q-Chem 5.3 (devel), Q-Chem, Inc., Pleasanton, CA (2020)
 Q-Chem 5.3.0 for Intel X86 EM64T Linux

User input:
--------------------------------------------------------------
$rem
   JOBTYPE  sp
   EXCHANGE   omegaB97X-D
   BASIS   6-311+G(2df,2pd)
   UNRESTRICTED   True
   max_scf_cycles   250
   geom_opt_max_cycles   1500
   basis2 6-31G*
   scf_algorithm rca_diis
   SYM_IGNORE  TRUE
   print_input   true
   geom_opt_dmax   80
   pop_mulliken false
   XC_GRID 000075000302
$end

$molecule
0 3
N       0.7219437705     1.1797251476     2.5145111408
O       0.3707563365     2.2002885470     1.8443336296
O       1.5784302256     0.9887734050     3.1756115984
N       0.0337776708     -1.1490535452     3.1401457976
O       -0.4736058920     -1.3232542444     4.1714482545
O       -0.2863109813     0.1985097999     2.2542494689
$end
--------------------------------------------------------------

             Standard Nuclear Orientation (Angstroms)
    I     Atom           X                Y                Z
 ----------------------------------------------------------------
    1      N       0.7219437705     1.1797251476     2.5145111408
    2      O       0.3707563365     2.2002885470     1.8443336296
    3      O       1.5784302256     0.9887734050     3.1756115984
    4      N       0.0337776708    -1.1490535452     3.1401457976
    5      O      -0.4736058920    -1.3232542444     4.1714482545
    6      O      -0.2863109813     0.1985097999     2.2542494689
 ----------------------------------------------------------------

    8    -409.9062681934      8.67E-05 Convergence criterion met
   11    -410.0643620711      5.56E-06 Convergence criterion met
 Total energy in the final basis set = -410.06436207

                    Orbital Energies (a.u.)
 --------------------------------------------------------------

 Alpha MOs
 -- Occupied --
-19.4097 -19.3975 -19.3771 -19.3307 -14.7736 -14.6164  -1.4799  -1.3727
 -1.2606  -1.1878  -0.8687  -0.7796  -0.7336  -0.7303  -0.6953  -0.6567
 -0.6375  -0.6332  -0.5032  -0.4967  -0.4723  -0.4548  -0.4268  -0.3380

 Beta MOs
 -- Occupied --
-19.3966 -19.3798 -19.3776 -19.3278 -14.7733 -14.5988  -1.4780  -1.3351
 -1.2488  -1.1602  -0.8266  -0.7492  -0.7326  -0.7157  -0.6813  -0.6074
 -0.5844  -0.5609  -0.4870  -0.4780  -0.4486  -0.4355

                    Cartesian Multipole Moments
 -----------------------------------------------------------------
    Charge (ESU x 10^10)
                -0.0000
    Dipole Moment (Debye)
         X       0.3842      Y      -1.0644      Z       0.6026
       Tot       1.2821
    Quadrupole Moments (Debye-Ang)
        XX     -31.8656     XY      -0.4599     YY     -34.7558
        XZ       0.3166     YZ      -0.6761     ZZ     -29.5614

 Total job time:  15.98s(wall), 85.61s(cpu)
        *  Thank you very much for using Q-Chem.  Have a nice day.  *
