 Q-Chem 5.3 (devel), Q-Chem, Inc., Pleasanton, CA (2020)
 Q-Chem 5.3.0 for Intel X86 EM64T Linux

User input:
--------------------------------------------------------------
$rem
   JOBTYPE  sp
   EXCHANGE   omegaB97X-D
   BASIS   6-311+G(2df,2pd)
   UNRESTRICTED   True
   max_scf_cycles   250
   geom_opt_max_cycles   1500
   basis2 6-31G*
   scf_algorithm rca_diis
   SYM_IGNORE  TRUE
   print_input   true
   geom_opt_dmax   80
   pop_mulliken false
   XC_GRID 000075000302
$end

$molecule
0 3
N       0.6768757270     1.1588228620     2.5087319772
O       0.2922075307     2.1301105657     1.9243249495
O       1.6382400751     0.9602275328     3.1744604231
N       0.1091636592     -1.2243412165     3.1134577336
O       -0.5207229242     -1.1249300419     4.0902485165
O       -0.2507729377     0.1950994077     2.2890762901
$end
--------------------------------------------------------------

             Standard Nuclear Orientation (Angstroms)
    I     Atom           X                Y                Z
 ----------------------------------------------------------------
    1      N       0.6768757270     1.1588228620     2.5087319772
    2      O       0.2922075307     2.1301105657     1.9243249495
    3      O       1.6382400751     0.9602275328     3.1744604231
    4      N       0.1091636592    -1.2243412165     3.1134577336
    5      O      -0.5207229242    -1.1249300419     4.0902485165
    6      O      -0.2507729377     0.1950994077     2.2890762901
 ----------------------------------------------------------------

    8    -409.9196475963      6.33E-05 Convergence criterion met
   12    -410.0748391542      3.32E-06 Convergence criterion met
 Total energy in the final basis set = -410.07483915

                    Orbital Energies (a.u.)
 --------------------------------------------------------------

 Alpha MOs
 -- Occupied --
-19.4165 -19.4024 -19.3529 -19.3487 -14.7788 -14.6071  -1.4583  -1.3752
 -1.2648  -1.2193  -0.8685  -0.7825  -0.7289  -0.7229  -0.6930  -0.6557
 -0.6327  -0.6240  -0.5163  -0.4986  -0.4690  -0.4663  -0.4429  -0.3358

 Beta MOs
 -- Occupied --
-19.4029 -19.3834 -19.3490 -19.3488 -14.7789 -14.5921  -1.4511  -1.3376
 -1.2599  -1.1880  -0.8266  -0.7486  -0.7254  -0.7081  -0.6769  -0.6011
 -0.5816  -0.5587  -0.4810  -0.4742  -0.4624  -0.4459

                    Cartesian Multipole Moments
 -----------------------------------------------------------------
    Charge (ESU x 10^10)
                -0.0000
    Dipole Moment (Debye)
         X      -0.2674      Y      -0.7671      Z       0.0990
       Tot       0.8184
    Quadrupole Moments (Debye-Ang)
        XX     -33.3021     XY      -0.7169     YY     -33.3471
        XZ      -1.8542     YZ      -1.3304     ZZ     -31.5729

 Total job time:  17.95s(wall), 97.06s(cpu)
        *  Thank you very much for using Q-Chem.  Have a nice day.  *
