 Q-Chem 5.3 (devel), Q-Chem, Inc., Pleasanton, CA (2020)
 Q-Chem 5.3.0 for Intel X86 EM64T Linux

User input:
--------------------------------------------------------------
$rem
   JOBTYPE  sp
   EXCHANGE   omegaB97X-D
   BASIS   6-311+G(2df,2pd)
   UNRESTRICTED   True
   max_scf_cycles   250
   geom_opt_max_cycles   1500
   basis2 6-31G*
   scf_algorithm rca_diis
   SYM_IGNORE  TRUE
   print_input   true
   geom_opt_dmax   80
   pop_mulliken false
   XC_GRID 000075000302
$end

$molecule
0 3
N       0.6872626013     1.2137494702     2.4769180418
O       0.3855323293     2.1770742185     1.8535371536
O       1.6000718141     0.9843482179     3.1964762257
N       0.0223050273     -1.1521866866     3.1586583779
O       -0.4620124293     -1.3268506231     4.1508847325
O       -0.2881682126     0.1988545129     2.2638253583
$end
--------------------------------------------------------------

             Standard Nuclear Orientation (Angstroms)
    I     Atom           X                Y                Z
 ----------------------------------------------------------------
    1      N       0.6872626013     1.2137494702     2.4769180418
    2      O       0.3855323293     2.1770742185     1.8535371536
    3      O       1.6000718141     0.9843482179     3.1964762257
    4      N       0.0223050273    -1.1521866866     3.1586583779
    5      O      -0.4620124293    -1.3268506231     4.1508847325
    6      O      -0.2881682126     0.1988545129     2.2638253583
 ----------------------------------------------------------------

    7    -409.9191375358      8.58E-05 Convergence criterion met
    9    -410.0770599562      9.90E-06 Convergence criterion met
 Total energy in the final basis set = -410.07705996

                    Orbital Energies (a.u.)
 --------------------------------------------------------------

 Alpha MOs
 -- Occupied --
-19.4064 -19.3974 -19.3491 -19.3452 -14.7709 -14.6113  -1.4436  -1.4064
 -1.2586  -1.2051  -0.8660  -0.7745  -0.7206  -0.7167  -0.6888  -0.6671
 -0.6482  -0.6398  -0.5001  -0.4951  -0.4633  -0.4587  -0.4351  -0.3220

 Beta MOs
 -- Occupied --
-19.3920 -19.3808 -19.3468 -19.3456 -14.7706 -14.5932  -1.4384  -1.3719
 -1.2561  -1.1690  -0.8236  -0.7412  -0.7144  -0.7041  -0.6719  -0.6162
 -0.5954  -0.5773  -0.4765  -0.4685  -0.4617  -0.4462

                    Cartesian Multipole Moments
 -----------------------------------------------------------------
    Charge (ESU x 10^10)
                -0.0000
    Dipole Moment (Debye)
         X      -0.2941      Y      -0.9114      Z       0.2048
       Tot       0.9794
    Quadrupole Moments (Debye-Ang)
        XX     -33.0220     XY      -1.0123     YY     -33.1272
        XZ      -2.0310     YZ      -1.4018     ZZ     -31.3250

 Total job time:  14.41s(wall), 76.22s(cpu)
        *  Thank you very much for using Q-Chem.  Have a nice day.  *
