 Q-Chem 5.3 (devel), Q-Chem, Inc., Pleasanton, CA (2020)
 Q-Chem 5.3.0 for Intel X86 EM64T Linux

User input:
--------------------------------------------------------------
$rem
   JOBTYPE  sp
   EXCHANGE   omegaB97X-D
   BASIS   6-311+G(2df,2pd)
   UNRESTRICTED   True
   max_scf_cycles   250
   geom_opt_max_cycles   1500
   basis2 6-31G*
   scf_algorithm rca_diis
   SYM_IGNORE  TRUE
   print_input   true
   geom_opt_dmax   80
   pop_mulliken false
   XC_GRID 000075000302
$end

$molecule
0 3
N       0.8439524363     1.3085122463     2.4890822000
O       0.2038422632     2.0712326245     1.8412435702
O       1.8995923898     1.3841998522     3.0072481809
N       -0.1778985657     -1.2934140731     3.1230941939
O       -0.7650481023     -1.5281886919     4.1239183141
O       -0.0594492913     0.1526471519     2.5157134309
$end
--------------------------------------------------------------

             Standard Nuclear Orientation (Angstroms)
    I     Atom           X                Y                Z
 ----------------------------------------------------------------
    1      N       0.8439524363     1.3085122463     2.4890822000
    2      O       0.2038422632     2.0712326245     1.8412435702
    3      O       1.8995923898     1.3841998522     3.0072481809
    4      N      -0.1778985657    -1.2934140731     3.1230941939
    5      O      -0.7650481023    -1.5281886919     4.1239183141
    6      O      -0.0594492913     0.1526471519     2.5157134309
 ----------------------------------------------------------------

    8    -409.9020836210      5.90E-05 Convergence criterion met
   10    -410.0579871097      6.97E-06 Convergence criterion met
 Total energy in the final basis set = -410.05798711

                    Orbital Energies (a.u.)
 --------------------------------------------------------------

 Alpha MOs
 -- Occupied --
-19.3921 -19.3869 -19.3652 -19.3635 -14.7765 -14.6170  -1.4480  -1.3497
 -1.2757  -1.1851  -0.8922  -0.7702  -0.7254  -0.7199  -0.6860  -0.6431
 -0.6228  -0.6005  -0.5195  -0.4886  -0.4731  -0.4636  -0.4255  -0.3321

 Beta MOs
 -- Occupied --
-19.3807 -19.3692 -19.3654 -19.3596 -14.7757 -14.5991  -1.4432  -1.3113
 -1.2708  -1.1534  -0.8533  -0.7468  -0.7176  -0.6964  -0.6795  -0.5777
 -0.5717  -0.5457  -0.4812  -0.4752  -0.4592  -0.4482

                    Cartesian Multipole Moments
 -----------------------------------------------------------------
    Charge (ESU x 10^10)
                -0.0000
    Dipole Moment (Debye)
         X       0.2791      Y      -0.2026      Z       0.0372
       Tot       0.3469
    Quadrupole Moments (Debye-Ang)
        XX     -33.2084     XY      -0.4813     YY     -32.7560
        XZ      -0.0793     YZ       0.9256     ZZ     -32.0656

 Total job time:  14.83s(wall), 79.38s(cpu)
        *  Thank you very much for using Q-Chem.  Have a nice day.  *
