 Q-Chem 5.3 (devel), Q-Chem, Inc., Pleasanton, CA (2020)
 Q-Chem 5.3.0 for Intel X86 EM64T Linux

User input:
--------------------------------------------------------------
$rem
   JOBTYPE  sp
   EXCHANGE   omegaB97X-D
   BASIS   6-311+G(2df,2pd)
   UNRESTRICTED   True
   max_scf_cycles   250
   geom_opt_max_cycles   1500
   basis2 6-31G*
   scf_algorithm rca_diis
   SYM_IGNORE  TRUE
   print_input   true
   geom_opt_dmax   80
   pop_mulliken false
   XC_GRID 000075000302
$end

$molecule
0 3
N       0.6960009980     1.1195576940     2.5188924977
O       0.2792953333     1.9980918539     1.8096699338
O       1.6290570448     0.9600656076     3.2577538695
N       -0.0206909622     -0.9866178235     3.1388314204
O       -0.4157340565     -1.3948983141     4.1439418885
O       -0.2229372273     0.3987900921     2.2312102800
$end
--------------------------------------------------------------

             Standard Nuclear Orientation (Angstroms)
    I     Atom           X                Y                Z
 ----------------------------------------------------------------
    1      N       0.6960009980     1.1195576940     2.5188924977
    2      O       0.2792953333     1.9980918539     1.8096699338
    3      O       1.6290570448     0.9600656076     3.2577538695
    4      N      -0.0206909622    -0.9866178235     3.1388314204
    5      O      -0.4157340565    -1.3948983141     4.1439418885
    6      O      -0.2229372273     0.3987900921     2.2312102800
 ----------------------------------------------------------------

    8    -409.8584259949      7.96E-05 Convergence criterion met
    9    -410.0159232699      7.03E-06 Convergence criterion met
 Total energy in the final basis set = -410.01592327

                    Orbital Energies (a.u.)
 --------------------------------------------------------------

 Alpha MOs
 -- Occupied --
-19.4162 -19.3799 -19.3551 -19.3505 -14.7880 -14.5864  -1.5308  -1.3565
 -1.2968  -1.2248  -0.8717  -0.7804  -0.7660  -0.7280  -0.7068  -0.6459
 -0.6267  -0.6148  -0.5258  -0.5051  -0.4700  -0.4654  -0.3903  -0.3177

 Beta MOs
 -- Occupied --
-19.4030 -19.3651 -19.3556 -19.3421 -14.7881 -14.5693  -1.5161  -1.3236
 -1.2917  -1.2004  -0.8311  -0.7619  -0.7538  -0.7035  -0.6858  -0.6114
 -0.5764  -0.5498  -0.4969  -0.4806  -0.4578  -0.4382

                    Cartesian Multipole Moments
 -----------------------------------------------------------------
    Charge (ESU x 10^10)
                -0.0000
    Dipole Moment (Debye)
         X      -0.2812      Y      -0.2265      Z      -0.2255
       Tot       0.4257
    Quadrupole Moments (Debye-Ang)
        XX     -32.6752     XY      -1.1040     YY     -33.9269
        XZ      -1.9562     YZ       1.1407     ZZ     -33.8828

 Total job time:  15.10s(wall), 80.17s(cpu)
        *  Thank you very much for using Q-Chem.  Have a nice day.  *
