 Q-Chem 5.3 (devel), Q-Chem, Inc., Pleasanton, CA (2020)
 Q-Chem 5.3.0 for Intel X86 EM64T Linux

User input:
--------------------------------------------------------------
$rem
   JOBTYPE  sp
   EXCHANGE   omegaB97X-D
   BASIS   6-311+G(2df,2pd)
   UNRESTRICTED   True
   max_scf_cycles   250
   geom_opt_max_cycles   1500
   basis2 6-31G*
   scf_algorithm rca_diis
   SYM_IGNORE  TRUE
   print_input   true
   geom_opt_dmax   80
   pop_mulliken false
   XC_GRID 000075000302
$end

$molecule
0 3
N       0.6525292078     1.0625896283     2.5692166239
O       0.1581578193     2.0230392537     2.0279554246
O       1.6769851065     0.9177120985     3.1583828418
N       0.1857931603     -1.3330552463     3.1196610890
O       -0.5138766286     -0.7634308728     3.8541382040
O       -0.2145975352     0.1881342485     2.3709457067
$end
--------------------------------------------------------------

             Standard Nuclear Orientation (Angstroms)
    I     Atom           X                Y                Z
 ----------------------------------------------------------------
    1      N       0.6525292078     1.0625896283     2.5692166239
    2      O       0.1581578193     2.0230392537     2.0279554246
    3      O       1.6769851065     0.9177120985     3.1583828418
    4      N       0.1857931603    -1.3330552463     3.1196610890
    5      O      -0.5138766286    -0.7634308728     3.8541382040
    6      O      -0.2145975352     0.1881342485     2.3709457067
 ----------------------------------------------------------------

    8    -409.8590198457      6.74E-05 Convergence criterion met
   10    -410.0151829787      9.05E-06 Convergence criterion met
 Total energy in the final basis set = -410.01518298

                    Orbital Energies (a.u.)
 --------------------------------------------------------------

 Alpha MOs
 -- Occupied --
-19.4167 -19.4060 -19.3445 -19.3445 -14.7795 -14.6019  -1.4974  -1.3985
 -1.2761  -1.2253  -0.8529  -0.8199  -0.7519  -0.7274  -0.7054  -0.6583
 -0.6258  -0.6078  -0.5339  -0.4977  -0.4655  -0.4586  -0.4227  -0.3365

 Beta MOs
 -- Occupied --
-19.4002 -19.3871 -19.3450 -19.3382 -14.7802 -14.5889  -1.4828  -1.3632
 -1.2682  -1.1974  -0.8125  -0.7819  -0.7356  -0.7173  -0.6830  -0.6060
 -0.5800  -0.5609  -0.5009  -0.4740  -0.4561  -0.4357

                    Cartesian Multipole Moments
 -----------------------------------------------------------------
    Charge (ESU x 10^10)
                -0.0000
    Dipole Moment (Debye)
         X      -0.4695      Y      -0.9579      Z       0.1842
       Tot       1.0825
    Quadrupole Moments (Debye-Ang)
        XX     -33.7558     XY      -0.3831     YY     -33.9616
        XZ      -2.4733     YZ      -2.2555     ZZ     -30.2798

 Total job time:  16.92s(wall), 90.29s(cpu)
        *  Thank you very much for using Q-Chem.  Have a nice day.  *
