 Q-Chem 5.3 (devel), Q-Chem, Inc., Pleasanton, CA (2020)
 Q-Chem 5.3.0 for Intel X86 EM64T Linux

User input:
--------------------------------------------------------------
$rem
   JOBTYPE  sp
   EXCHANGE   omegaB97X-D
   BASIS   6-311+G(2df,2pd)
   UNRESTRICTED   True
   max_scf_cycles   250
   geom_opt_max_cycles   1500
   basis2 6-31G*
   scf_algorithm rca_diis
   SYM_IGNORE  TRUE
   print_input   true
   geom_opt_dmax   80
   pop_mulliken false
   XC_GRID 000075000302
$end

$molecule
0 3
N       0.7051573905     1.3039680871     2.4231548915
O       0.6222532151     2.2302333206     1.7091893032
O       1.4707597035     1.0300229656     3.2728681415
N       -0.2176750484     -0.9511402605     3.2762672759
O       -0.2352322511     -1.6902965142     4.1873172653
O       -0.4002718795     0.1722015114     2.2315030126
$end
--------------------------------------------------------------

             Standard Nuclear Orientation (Angstroms)
    I     Atom           X                Y                Z
 ----------------------------------------------------------------
    1      N       0.7051573905     1.3039680871     2.4231548915
    2      O       0.6222532151     2.2302333206     1.7091893032
    3      O       1.4707597035     1.0300229656     3.2728681415
    4      N      -0.2176750484    -0.9511402605     3.2762672759
    5      O      -0.2352322511    -1.6902965142     4.1873172653
    6      O      -0.4002718795     0.1722015114     2.2315030126
 ----------------------------------------------------------------

    9    -409.8732275937      7.09E-05 Convergence criterion met
   11    -410.0293945105      7.37E-06 Convergence criterion met
 Total energy in the final basis set = -410.02939451

                    Orbital Energies (a.u.)
 --------------------------------------------------------------

 Alpha MOs
 -- Occupied --
-19.4008 -19.3781 -19.3598 -19.3500 -14.7584 -14.6325  -1.4355  -1.3625
 -1.2647  -1.1754  -0.8670  -0.7702  -0.7185  -0.7073  -0.6784  -0.6619
 -0.6367  -0.6310  -0.4848  -0.4799  -0.4686  -0.4512  -0.3598  -0.3414

 Beta MOs
 -- Occupied --
-19.3866 -19.3631 -19.3580 -19.3501 -14.7564 -14.6101  -1.4316  -1.3245
 -1.2619  -1.1324  -0.8201  -0.7447  -0.7044  -0.7027  -0.6715  -0.6129
 -0.5936  -0.5627  -0.4688  -0.4615  -0.4607  -0.4454

                    Cartesian Multipole Moments
 -----------------------------------------------------------------
    Charge (ESU x 10^10)
                -0.0000
    Dipole Moment (Debye)
         X      -0.2063      Y      -0.4337      Z       0.3181
       Tot       0.5761
    Quadrupole Moments (Debye-Ang)
        XX     -32.6505     XY      -0.7854     YY     -32.9095
        XZ      -2.1800     YZ       0.2745     ZZ     -31.0205

 Total job time:  15.45s(wall), 82.90s(cpu)
        *  Thank you very much for using Q-Chem.  Have a nice day.  *
