 Q-Chem 5.3 (devel), Q-Chem, Inc., Pleasanton, CA (2020)
 Q-Chem 5.3.0 for Intel X86 EM64T Linux

User input:
--------------------------------------------------------------
$rem
   JOBTYPE  sp
   EXCHANGE   omegaB97X-D
   BASIS   6-311+G(2df,2pd)
   UNRESTRICTED   True
   max_scf_cycles   250
   geom_opt_max_cycles   1500
   basis2 6-31G*
   scf_algorithm rca_diis
   SYM_IGNORE  TRUE
   print_input   true
   geom_opt_dmax   80
   pop_mulliken false
   XC_GRID 000075000302
$end

$molecule
0 3
N       0.6844231590     1.1940722928     2.4875064875
O       0.3502620683     2.1649826650     1.8809845070
O       1.6155682101     0.9758608616     3.1860162477
N       0.0618264087     -1.1758665202     3.1285703773
O       -0.4952159272     -1.2615659033     4.1513324624
O       -0.2718727888     0.1975057140     2.2658898081
$end
--------------------------------------------------------------

             Standard Nuclear Orientation (Angstroms)
    I     Atom           X                Y                Z
 ----------------------------------------------------------------
    1      N       0.6844231590     1.1940722928     2.4875064875
    2      O       0.3502620683     2.1649826650     1.8809845070
    3      O       1.6155682101     0.9758608616     3.1860162477
    4      N       0.0618264087    -1.1758665202     3.1285703773
    5      O      -0.4952159272    -1.2615659033     4.1513324624
    6      O      -0.2718727888     0.1975057140     2.2658898081
 ----------------------------------------------------------------

    8    -409.9255729803      6.21E-05 Convergence criterion met
   10    -410.0807729817      8.67E-06 Convergence criterion met
 Total energy in the final basis set = -410.08077298

                    Orbital Energies (a.u.)
 --------------------------------------------------------------

 Alpha MOs
 -- Occupied --
-19.4143 -19.4013 -19.3502 -19.3478 -14.7751 -14.6167  -1.4483  -1.3713
 -1.2607  -1.2120  -0.8730  -0.7787  -0.7216  -0.7203  -0.6880  -0.6559
 -0.6335  -0.6308  -0.5063  -0.4979  -0.4650  -0.4641  -0.4401  -0.3396

 Beta MOs
 -- Occupied --
-19.4009 -19.3830 -19.3482 -19.3475 -14.7750 -14.5995  -1.4430  -1.3334
 -1.2576  -1.1792  -0.8298  -0.7455  -0.7189  -0.7054  -0.6741  -0.6032
 -0.5830  -0.5589  -0.4795  -0.4723  -0.4622  -0.4467

                    Cartesian Multipole Moments
 -----------------------------------------------------------------
    Charge (ESU x 10^10)
                -0.0000
    Dipole Moment (Debye)
         X      -0.2496      Y      -0.8259      Z       0.0976
       Tot       0.8683
    Quadrupole Moments (Debye-Ang)
        XX     -33.1303     XY      -0.9347     YY     -33.4073
        XZ      -1.8567     YZ      -1.1415     ZZ     -31.9095

 Total job time:  15.87s(wall), 84.45s(cpu)
        *  Thank you very much for using Q-Chem.  Have a nice day.  *
