 Q-Chem 5.3 (devel), Q-Chem, Inc., Pleasanton, CA (2020)
 Q-Chem 5.3.0 for Intel X86 EM64T Linux

User input:
--------------------------------------------------------------
$rem
   JOBTYPE  sp
   EXCHANGE   omegaB97X-D
   BASIS   6-311+G(2df,2pd)
   UNRESTRICTED   True
   max_scf_cycles   250
   geom_opt_max_cycles   1500
   basis2 6-31G*
   scf_algorithm rca_diis
   SYM_IGNORE  TRUE
   print_input   true
   geom_opt_dmax   80
   pop_mulliken false
   XC_GRID 000075000302
$end

$molecule
0 3
N       0.7011352970     1.2280654824     2.4790288314
O       0.3841308727     2.1595910377     1.8715572737
O       1.5845852886     0.9860649241     3.1789947573
N       0.0362240437     -1.1524546320     3.1389815059
O       -0.4784243808     -1.3262351866     4.1758301283
O       -0.2826599911     0.1999574844     2.2559073935
$end
--------------------------------------------------------------

             Standard Nuclear Orientation (Angstroms)
    I     Atom           X                Y                Z
 ----------------------------------------------------------------
    1      N       0.7011352970     1.2280654824     2.4790288314
    2      O       0.3841308727     2.1595910377     1.8715572737
    3      O       1.5845852886     0.9860649241     3.1789947573
    4      N       0.0362240437    -1.1524546320     3.1389815059
    5      O      -0.4784243808    -1.3262351866     4.1758301283
    6      O      -0.2826599911     0.1999574844     2.2559073935
 ----------------------------------------------------------------

    7    -409.9207483787      8.47E-05 Convergence criterion met
    9    -410.0781832552      7.33E-06 Convergence criterion met
 Total energy in the final basis set = -410.07818326

                    Orbital Energies (a.u.)
 --------------------------------------------------------------

 Alpha MOs
 -- Occupied --
-19.4006 -19.3946 -19.3518 -19.3489 -14.7736 -14.6153  -1.4691  -1.3631
 -1.2880  -1.1994  -0.8676  -0.7727  -0.7338  -0.7248  -0.6868  -0.6557
 -0.6319  -0.6279  -0.5014  -0.4918  -0.4731  -0.4636  -0.4365  -0.3361

 Beta MOs
 -- Occupied --
-19.3873 -19.3767 -19.3497 -19.3493 -14.7734 -14.5973  -1.4655  -1.3247
 -1.2858  -1.1647  -0.8240  -0.7418  -0.7322  -0.7093  -0.6789  -0.6020
 -0.5782  -0.5546  -0.4765  -0.4707  -0.4675  -0.4537

                    Cartesian Multipole Moments
 -----------------------------------------------------------------
    Charge (ESU x 10^10)
                -0.0000
    Dipole Moment (Debye)
         X      -0.0249      Y      -0.4543      Z       0.0516
       Tot       0.4579
    Quadrupole Moments (Debye-Ang)
        XX     -32.7713     XY      -0.7426     YY     -32.9129
        XZ      -1.2729     YZ      -0.0088     ZZ     -32.2452

 Total job time:  13.66s(wall), 71.78s(cpu)
        *  Thank you very much for using Q-Chem.  Have a nice day.  *
