 Q-Chem 5.3 (devel), Q-Chem, Inc., Pleasanton, CA (2020)
 Q-Chem 5.3.0 for Intel X86 EM64T Linux

User input:
--------------------------------------------------------------
$rem
   JOBTYPE  sp
   EXCHANGE   omegaB97X-D
   BASIS   6-311+G(2df,2pd)
   UNRESTRICTED   True
   max_scf_cycles   250
   geom_opt_max_cycles   1500
   basis2 6-31G*
   scf_algorithm rca_diis
   SYM_IGNORE  TRUE
   print_input   true
   geom_opt_dmax   80
   pop_mulliken false
   XC_GRID 000075000302
$end

$molecule
0 3
N       0.6601969103     1.1747537402     2.4748437513
O       0.3741266798     2.2208113718     1.8369432895
O       1.6385448032     0.9806806608     3.2191793289
N       0.0332196532     -1.1489859605     3.1397280330
O       -0.4748185082     -1.3255339906     4.1721794957
O       -0.2862784081     0.1932632881     2.2574259915
$end
--------------------------------------------------------------

             Standard Nuclear Orientation (Angstroms)
    I     Atom           X                Y                Z
 ----------------------------------------------------------------
    1      N       0.6601969103     1.1747537402     2.4748437513
    2      O       0.3741266798     2.2208113718     1.8369432895
    3      O       1.6385448032     0.9806806608     3.2191793289
    4      N       0.0332196532    -1.1489859605     3.1397280330
    5      O      -0.4748185082    -1.3255339906     4.1721794957
    6      O      -0.2862784081     0.1932632881     2.2574259915
 ----------------------------------------------------------------

    9    -409.9178686211      3.67E-05 Convergence criterion met
   13    -410.0707606304      3.08E-06 Convergence criterion met
 Total energy in the final basis set = -410.07076063

                    Orbital Energies (a.u.)
 --------------------------------------------------------------

 Alpha MOs
 -- Occupied --
-19.4335 -19.4094 -19.3485 -19.3473 -14.7730 -14.6299  -1.4106  -1.3781
 -1.2232  -1.2064  -0.8891  -0.7869  -0.7160  -0.6978  -0.6903  -0.6547
 -0.6394  -0.6321  -0.5059  -0.5007  -0.4605  -0.4498  -0.4357  -0.3483

 Beta MOs
 -- Occupied --
-19.4204 -19.3915 -19.3478 -19.3459 -14.7728 -14.6115  -1.4005  -1.3422
 -1.2098  -1.1876  -0.8454  -0.7513  -0.6983  -0.6928  -0.6666  -0.6062
 -0.5911  -0.5662  -0.4873  -0.4701  -0.4484  -0.4349

                    Cartesian Multipole Moments
 -----------------------------------------------------------------
    Charge (ESU x 10^10)
                -0.0000
    Dipole Moment (Debye)
         X      -0.6103      Y      -1.3851      Z       0.1519
       Tot       1.5212
    Quadrupole Moments (Debye-Ang)
        XX     -33.5377     XY      -1.4039     YY     -34.2967
        XZ      -2.8578     YZ      -2.4946     ZZ     -31.8262

 Total job time:  18.32s(wall), 99.66s(cpu)
        *  Thank you very much for using Q-Chem.  Have a nice day.  *
