 Q-Chem 5.3 (devel), Q-Chem, Inc., Pleasanton, CA (2020)
 Q-Chem 5.3.0 for Intel X86 EM64T Linux

User input:
--------------------------------------------------------------
$rem
   JOBTYPE  sp
   EXCHANGE   omegaB97X-D
   BASIS   6-311+G(2df,2pd)
   UNRESTRICTED   True
   max_scf_cycles   250
   geom_opt_max_cycles   1500
   basis2 6-31G*
   scf_algorithm rca_diis
   SYM_IGNORE  TRUE
   print_input   true
   geom_opt_dmax   80
   pop_mulliken false
   XC_GRID 000075000302
$end

$molecule
0 3
N       0.6680938682     1.1211673722     2.5318574835
O       0.2364087739     2.0898919802     1.9671777298
O       1.6567740232     0.9436666771     3.1660184644
N       0.1477204604     -1.2705069110     3.1076670948
O       -0.5306907482     -0.9810350024     4.0097781729
O       -0.2333152474     0.1918049939     2.3178009446
$end
--------------------------------------------------------------

             Standard Nuclear Orientation (Angstroms)
    I     Atom           X                Y                Z
 ----------------------------------------------------------------
    1      N       0.6680938682     1.1211673722     2.5318574835
    2      O       0.2364087739     2.0898919802     1.9671777298
    3      O       1.6567740232     0.9436666771     3.1660184644
    4      N       0.1477204604    -1.2705069110     3.1076670948
    5      O      -0.5306907482    -0.9810350024     4.0097781729
    6      O      -0.2333152474     0.1918049939     2.3178009446
 ----------------------------------------------------------------

    7    -409.9070406243      9.56E-05 Convergence criterion met
   11    -410.0624134084      7.56E-06 Convergence criterion met
 Total energy in the final basis set = -410.06241341

                    Orbital Energies (a.u.)
 --------------------------------------------------------------

 Alpha MOs
 -- Occupied --
-19.4182 -19.4009 -19.3560 -19.3498 -14.7824 -14.5989  -1.4722  -1.3797
 -1.2708  -1.2259  -0.8624  -0.7887  -0.7393  -0.7261  -0.6990  -0.6555
 -0.6301  -0.6146  -0.5248  -0.5005  -0.4709  -0.4689  -0.4429  -0.3315

 Beta MOs
 -- Occupied --
-19.4039 -19.3815 -19.3504 -19.3502 -14.7827 -14.5855  -1.4627  -1.3428
 -1.2644  -1.1956  -0.8218  -0.7545  -0.7323  -0.7124  -0.6810  -0.6005
 -0.5791  -0.5576  -0.4866  -0.4753  -0.4629  -0.4452

                    Cartesian Multipole Moments
 -----------------------------------------------------------------
    Charge (ESU x 10^10)
                -0.0000
    Dipole Moment (Debye)
         X      -0.2897      Y      -0.6538      Z       0.0743
       Tot       0.7190
    Quadrupole Moments (Debye-Ang)
        XX     -33.4861     XY      -0.4662     YY     -33.3865
        XZ      -1.8793     YZ      -1.3094     ZZ     -31.3553

 Total job time:  17.13s(wall), 92.03s(cpu)
        *  Thank you very much for using Q-Chem.  Have a nice day.  *
