 Q-Chem 5.3 (devel), Q-Chem, Inc., Pleasanton, CA (2020)
 Q-Chem 5.3.0 for Intel X86 EM64T Linux

User input:
--------------------------------------------------------------
$rem
   JOBTYPE  sp
   EXCHANGE   omegaB97X-D
   BASIS   6-311+G(2df,2pd)
   UNRESTRICTED   True
   max_scf_cycles   250
   geom_opt_max_cycles   1500
   basis2 6-31G*
   scf_algorithm rca_diis
   SYM_IGNORE  TRUE
   print_input   true
   geom_opt_dmax   80
   pop_mulliken false
   XC_GRID 000075000302
$end

$molecule
0 3
N       0.5625335544     1.1000684825     2.4804056060
O       0.4872125316     2.1817934857     1.9851570773
O       1.3218562673     0.6505847880     3.2744777111
N       0.2295349607     -0.9544451676     3.1365004114
O       -0.2663928121     -1.0739394024     4.1747429638
O       -0.3897533719     0.1909269237     2.0490161204
$end
--------------------------------------------------------------

             Standard Nuclear Orientation (Angstroms)
    I     Atom           X                Y                Z
 ----------------------------------------------------------------
    1      N       0.5625335544     1.1000684825     2.4804056060
    2      O       0.4872125316     2.1817934857     1.9851570773
    3      O       1.3218562673     0.6505847880     3.2744777111
    4      N       0.2295349607    -0.9544451676     3.1365004114
    5      O      -0.2663928121    -1.0739394024     4.1747429638
    6      O      -0.3897533719     0.1909269237     2.0490161204
 ----------------------------------------------------------------

    8    -409.8815474939      7.71E-05 Convergence criterion met
   11    -410.0377529123      4.40E-06 Convergence criterion met
 Total energy in the final basis set = -410.03775291

                    Orbital Energies (a.u.)
 --------------------------------------------------------------

 Alpha MOs
 -- Occupied --
-19.4124 -19.3929 -19.3449 -19.3421 -14.7712 -14.6151  -1.4556  -1.3725
 -1.2605  -1.2168  -0.8569  -0.7803  -0.7373  -0.7259  -0.6968  -0.6585
 -0.6335  -0.6254  -0.4995  -0.4941  -0.4645  -0.4546  -0.4505  -0.3097

 Beta MOs
 -- Occupied --
-19.3982 -19.3781 -19.3440 -19.3398 -14.7712 -14.5943  -1.4481  -1.3389
 -1.2558  -1.1842  -0.8091  -0.7460  -0.7223  -0.7162  -0.6769  -0.6165
 -0.5847  -0.5665  -0.4801  -0.4718  -0.4615  -0.4250

                    Cartesian Multipole Moments
 -----------------------------------------------------------------
    Charge (ESU x 10^10)
                -0.0000
    Dipole Moment (Debye)
         X      -0.1166      Y      -0.8429      Z      -0.0209
       Tot       0.8512
    Quadrupole Moments (Debye-Ang)
        XX     -32.3534     XY      -1.4835     YY     -34.0479
        XZ      -1.3141     YZ      -1.2736     ZZ     -32.8593

 Total job time:  16.94s(wall), 90.55s(cpu)
        *  Thank you very much for using Q-Chem.  Have a nice day.  *
