 Q-Chem 5.3 (devel), Q-Chem, Inc., Pleasanton, CA (2020)
 Q-Chem 5.3.0 for Intel X86 EM64T Linux

User input:
--------------------------------------------------------------
$rem
   JOBTYPE  sp
   EXCHANGE   omegaB97X-D
   BASIS   6-311+G(2df,2pd)
   UNRESTRICTED   True
   max_scf_cycles   250
   geom_opt_max_cycles   1500
   basis2 6-31G*
   scf_algorithm rca_diis
   SYM_IGNORE  TRUE
   print_input   true
   geom_opt_dmax   80
   pop_mulliken false
   XC_GRID 000075000302
$end

$molecule
0 3
N       0.7082526363     1.2259400993     2.4783311664
O       0.3588258254     2.1730374661     1.8482042270
O       1.6461369755     1.0363741743     3.1735843272
N       0.0054409000     -1.1761487342     3.1386824715
O       -0.5137206593     -1.3598129328     4.1713508351
O       -0.2599445478     0.1955990371     2.2901468629
$end
--------------------------------------------------------------

             Standard Nuclear Orientation (Angstroms)
    I     Atom           X                Y                Z
 ----------------------------------------------------------------
    1      N       0.7082526363     1.2259400993     2.4783311664
    2      O       0.3588258254     2.1730374661     1.8482042270
    3      O       1.6461369755     1.0363741743     3.1735843272
    4      N       0.0054409000    -1.1761487342     3.1386824715
    5      O      -0.5137206593    -1.3598129328     4.1713508351
    6      O      -0.2599445478     0.1955990371     2.2901468629
 ----------------------------------------------------------------

    7    -409.9256107199      9.78E-05 Convergence criterion met
   10    -410.0810028483      5.54E-06 Convergence criterion met
 Total energy in the final basis set = -410.08100285

                    Orbital Energies (a.u.)
 --------------------------------------------------------------

 Alpha MOs
 -- Occupied --
-19.4106 -19.3988 -19.3519 -19.3506 -14.7744 -14.6208  -1.4450  -1.3675
 -1.2619  -1.2056  -0.8774  -0.7763  -0.7210  -0.7186  -0.6851  -0.6551
 -0.6321  -0.6307  -0.5037  -0.4965  -0.4661  -0.4625  -0.4365  -0.3408

 Beta MOs
 -- Occupied --
-19.3976 -19.3808 -19.3510 -19.3495 -14.7742 -14.6028  -1.4406  -1.3291
 -1.2592  -1.1725  -0.8342  -0.7446  -0.7165  -0.7040  -0.6742  -0.6010
 -0.5823  -0.5573  -0.4784  -0.4719  -0.4637  -0.4491

                    Cartesian Multipole Moments
 -----------------------------------------------------------------
    Charge (ESU x 10^10)
                -0.0000
    Dipole Moment (Debye)
         X      -0.1892      Y      -0.7340      Z       0.0937
       Tot       0.7637
    Quadrupole Moments (Debye-Ang)
        XX     -33.1102     XY      -0.9061     YY     -33.3334
        XZ      -1.7105     YZ      -0.7011     ZZ     -32.0443

 Total job time:  15.42s(wall), 82.39s(cpu)
        *  Thank you very much for using Q-Chem.  Have a nice day.  *
