 Q-Chem 5.3 (devel), Q-Chem, Inc., Pleasanton, CA (2020)
 Q-Chem 5.3.0 for Intel X86 EM64T Linux

User input:
--------------------------------------------------------------
$rem
   JOBTYPE  sp
   EXCHANGE   omegaB97X-D
   BASIS   6-311+G(2df,2pd)
   UNRESTRICTED   True
   max_scf_cycles   250
   geom_opt_max_cycles   1500
   basis2 6-31G*
   scf_algorithm rca_diis
   SYM_IGNORE  TRUE
   print_input   true
   geom_opt_dmax   80
   pop_mulliken false
   XC_GRID 000075000302
$end

$molecule
0 3
N       0.6200524496     1.2714307322     2.4060179174
O       0.3916684002     2.1326223724     1.8890497671
O       1.6467863536     0.9614986755     3.2305847155
N       0.0419039902     -1.1490088110     3.1356765916
O       -0.4814740249     -1.3256037586     4.1786522502
O       -0.2739460386     0.2040498994     2.2603186480
$end
--------------------------------------------------------------

             Standard Nuclear Orientation (Angstroms)
    I     Atom           X                Y                Z
 ----------------------------------------------------------------
    1      N       0.6200524496     1.2714307322     2.4060179174
    2      O       0.3916684002     2.1326223724     1.8890497671
    3      O       1.6467863536     0.9614986755     3.2305847155
    4      N       0.0419039902    -1.1490088110     3.1356765916
    5      O      -0.4814740249    -1.3256037586     4.1786522502
    6      O      -0.2739460386     0.2040498994     2.2603186480
 ----------------------------------------------------------------

    8    -409.8459481107      9.79E-05 Convergence criterion met
   18    -410.0107813987      3.89E-06 Convergence criterion met
 Total energy in the final basis set = -410.01078140

                    Orbital Energies (a.u.)
 --------------------------------------------------------------

 Alpha MOs
 -- Occupied --
-19.4083 -19.3984 -19.3952 -19.2950 -14.7661 -14.6215  -1.5424  -1.3599
 -1.2478  -1.1491  -0.8857  -0.7782  -0.7614  -0.7447  -0.6929  -0.6538
 -0.6321  -0.6284  -0.5080  -0.5013  -0.4579  -0.4262  -0.4095  -0.3388

 Beta MOs
 -- Occupied --
-19.3948 -19.3939 -19.3804 -19.2949 -14.7659 -14.6029  -1.5394  -1.3207
 -1.2216  -1.1395  -0.8426  -0.7599  -0.7556  -0.7184  -0.6861  -0.5950
 -0.5791  -0.5550  -0.4872  -0.4790  -0.4249  -0.4055

                    Cartesian Multipole Moments
 -----------------------------------------------------------------
    Charge (ESU x 10^10)
                 0.0000
    Dipole Moment (Debye)
         X      -1.3349      Y       0.0909      Z      -1.0228
       Tot       1.6842
    Quadrupole Moments (Debye-Ang)
        XX     -35.2611     XY      -1.9079     YY     -30.3594
        XZ      -5.6929     YZ      -0.5807     ZZ     -37.5958

 Total job time:  23.27s(wall), 129.54s(cpu)
        *  Thank you very much for using Q-Chem.  Have a nice day.  *
