 Q-Chem 5.3 (devel), Q-Chem, Inc., Pleasanton, CA (2020)
 Q-Chem 5.3.0 for Intel X86 EM64T Linux

User input:
--------------------------------------------------------------
$rem
   JOBTYPE  sp
   EXCHANGE   omegaB97X-D
   BASIS   6-311+G(2df,2pd)
   UNRESTRICTED   True
   max_scf_cycles   250
   geom_opt_max_cycles   1500
   basis2 6-31G*
   scf_algorithm rca_diis
   SYM_IGNORE  TRUE
   print_input   true
   geom_opt_dmax   80
   pop_mulliken false
   XC_GRID 000075000302
$end

$molecule
0 3
N       0.6192108909     1.1391206728     2.4717160230
O       0.4380976648     2.1654482162     1.9030263957
O       1.5812244830     1.0427189807     3.1383087490
N       0.0341454649     -1.1303746021     3.1423705473
O       -0.4864366234     -1.3343776631     4.1665027664
O       -0.2412507502     0.2124535054     2.2783754087
$end
--------------------------------------------------------------

             Standard Nuclear Orientation (Angstroms)
    I     Atom           X                Y                Z
 ----------------------------------------------------------------
    1      N       0.6192108909     1.1391206728     2.4717160230
    2      O       0.4380976648     2.1654482162     1.9030263957
    3      O       1.5812244830     1.0427189807     3.1383087490
    4      N       0.0341454649    -1.1303746021     3.1423705473
    5      O      -0.4864366234    -1.3343776631     4.1665027664
    6      O      -0.2412507502     0.2124535054     2.2783754087
 ----------------------------------------------------------------

    8    -409.9023251196      7.92E-05 Convergence criterion met
   16    -410.0597512603      1.18E-06 Convergence criterion met
 Total energy in the final basis set = -410.05975126

                    Orbital Energies (a.u.)
 --------------------------------------------------------------

 Alpha MOs
 -- Occupied --
-19.4375 -19.4103 -19.3285 -19.3199 -14.7719 -14.6320  -1.4799  -1.3817
 -1.2743  -1.2337  -0.9114  -0.7822  -0.7419  -0.7115  -0.7003  -0.6574
 -0.6422  -0.6301  -0.5170  -0.5106  -0.4675  -0.4456  -0.4179  -0.3511

 Beta MOs
 -- Occupied --
-19.4254 -19.3926 -19.3249 -19.3199 -14.7719 -14.6134  -1.4718  -1.3441
 -1.2516  -1.2271  -0.8666  -0.7419  -0.7383  -0.7002  -0.6737  -0.6057
 -0.5944  -0.5663  -0.4993  -0.4821  -0.4434  -0.4100

                    Cartesian Multipole Moments
 -----------------------------------------------------------------
    Charge (ESU x 10^10)
                 0.0000
    Dipole Moment (Debye)
         X      -0.8414      Y      -1.5367      Z       0.0840
       Tot       1.7540
    Quadrupole Moments (Debye-Ang)
        XX     -33.6880     XY      -1.7263     YY     -34.6103
        XZ      -3.6344     YZ      -2.7308     ZZ     -31.9037

 Total job time:  21.36s(wall), 117.89s(cpu)
        *  Thank you very much for using Q-Chem.  Have a nice day.  *
