 Q-Chem 5.3 (devel), Q-Chem, Inc., Pleasanton, CA (2020)
 Q-Chem 5.3.0 for Intel X86 EM64T Linux

User input:
--------------------------------------------------------------
$rem
   JOBTYPE  sp
   EXCHANGE   omegaB97X-D
   BASIS   6-311+G(2df,2pd)
   UNRESTRICTED   True
   max_scf_cycles   250
   geom_opt_max_cycles   1500
   basis2 6-31G*
   scf_algorithm rca_diis
   SYM_IGNORE  TRUE
   print_input   true
   geom_opt_dmax   80
   pop_mulliken false
   XC_GRID 000075000302
$end

$molecule
0 3
N       0.8000648309     1.3360589240     2.5011845207
O       0.2918380218     2.1710614466     1.8131500712
O       1.6217976144     0.8899124106     3.2513193938
N       0.0471422010     -1.1745767652     3.1387314530
O       -0.4705591864     -1.3024049853     4.1813973713
O       -0.3452923517     0.1749380794     2.2145170800
$end
--------------------------------------------------------------

             Standard Nuclear Orientation (Angstroms)
    I     Atom           X                Y                Z
 ----------------------------------------------------------------
    1      N       0.8000648309     1.3360589240     2.5011845207
    2      O       0.2918380218     2.1710614466     1.8131500712
    3      O       1.6217976144     0.8899124106     3.2513193938
    4      N       0.0471422010    -1.1745767652     3.1387314530
    5      O      -0.4705591864    -1.3024049853     4.1813973713
    6      O      -0.3452923517     0.1749380794     2.2145170800
 ----------------------------------------------------------------

    9    -409.8906910793      4.10E-05 Convergence criterion met
    9    -410.0450000152      9.03E-06 Convergence criterion met
 Total energy in the final basis set = -410.04500002

                    Orbital Energies (a.u.)
 --------------------------------------------------------------

 Alpha MOs
 -- Occupied --
-19.3999 -19.3982 -19.3732 -19.3538 -14.7858 -14.5918  -1.4302  -1.3406
 -1.2995  -1.1173  -0.8247  -0.7875  -0.7212  -0.7146  -0.6997  -0.6388
 -0.6173  -0.6057  -0.5072  -0.5009  -0.4520  -0.4490  -0.4184  -0.3118

 Beta MOs
 -- Occupied --
-19.4004 -19.3965 -19.3557 -19.3397 -14.7847 -14.5755  -1.4275  -1.3041
 -1.2977  -1.0737  -0.8033  -0.7477  -0.7131  -0.7002  -0.6979  -0.5857
 -0.5571  -0.5400  -0.5008  -0.4901  -0.4345  -0.4267

                    Cartesian Multipole Moments
 -----------------------------------------------------------------
    Charge (ESU x 10^10)
                -0.0000
    Dipole Moment (Debye)
         X       1.0420      Y       1.0295      Z       0.0548
       Tot       1.4659
    Quadrupole Moments (Debye-Ang)
        XX     -31.6612     XY       0.5711     YY     -30.7098
        XZ       1.9979     YZ       3.5777     ZZ     -32.6105

 Total job time:  13.69s(wall), 72.65s(cpu)
        *  Thank you very much for using Q-Chem.  Have a nice day.  *
