 Q-Chem 5.3 (devel), Q-Chem, Inc., Pleasanton, CA (2020)
 Q-Chem 5.3.0 for Intel X86 EM64T Linux

User input:
--------------------------------------------------------------
$rem
   JOBTYPE  sp
   EXCHANGE   omegaB97X-D
   BASIS   6-311+G(2df,2pd)
   UNRESTRICTED   True
   max_scf_cycles   250
   geom_opt_max_cycles   1500
   basis2 6-31G*
   scf_algorithm rca_diis
   SYM_IGNORE  TRUE
   print_input   true
   geom_opt_dmax   80
   pop_mulliken false
   XC_GRID 000075000302
$end

$molecule
0 3
N       0.6405098127     1.1638992577     2.4757880262
O       0.4173171095     2.1720056716     1.8876855127
O       1.5920248303     1.0224829480     3.1547221645
N       0.0352314786     -1.1375555732     3.1428144226
O       -0.4862395193     -1.3320859235     4.1689553073
O       -0.2538525817     0.2062427293     2.2703344567
$end
--------------------------------------------------------------

             Standard Nuclear Orientation (Angstroms)
    I     Atom           X                Y                Z
 ----------------------------------------------------------------
    1      N       0.6405098127     1.1638992577     2.4757880262
    2      O       0.4173171095     2.1720056716     1.8876855127
    3      O       1.5920248303     1.0224829480     3.1547221645
    4      N       0.0352314786    -1.1375555732     3.1428144226
    5      O      -0.4862395193    -1.3320859235     4.1689553073
    6      O      -0.2538525817     0.2062427293     2.2703344567
 ----------------------------------------------------------------

    8    -409.9159510760      7.88E-05 Convergence criterion met
   12    -410.0724670270      7.21E-06 Convergence criterion met
 Total energy in the final basis set = -410.07246703

                    Orbital Energies (a.u.)
 --------------------------------------------------------------

 Alpha MOs
 -- Occupied --
-19.4306 -19.4087 -19.3339 -19.3282 -14.7715 -14.6301  -1.4647  -1.3791
 -1.2537  -1.2396  -0.8997  -0.7808  -0.7316  -0.7138  -0.6948  -0.6567
 -0.6406  -0.6330  -0.5120  -0.5070  -0.4645  -0.4509  -0.4264  -0.3493

 Beta MOs
 -- Occupied --
-19.4180 -19.3908 -19.3309 -19.3284 -14.7714 -14.6116  -1.4579  -1.3411
 -1.2412  -1.2206  -0.8545  -0.7422  -0.7284  -0.7022  -0.6712  -0.6067
 -0.5921  -0.5650  -0.4932  -0.4789  -0.4492  -0.4237

                    Cartesian Multipole Moments
 -----------------------------------------------------------------
    Charge (ESU x 10^10)
                -0.0000
    Dipole Moment (Debye)
         X      -0.6780      Y      -1.3704      Z       0.1141
       Tot       1.5332
    Quadrupole Moments (Debye-Ang)
        XX     -33.5332     XY      -1.5249     YY     -34.2827
        XZ      -3.1515     YZ      -2.3363     ZZ     -31.7922

 Total job time:  17.84s(wall), 96.71s(cpu)
        *  Thank you very much for using Q-Chem.  Have a nice day.  *
