 Q-Chem 5.3 (devel), Q-Chem, Inc., Pleasanton, CA (2020)
 Q-Chem 5.3.0 for Intel X86 EM64T Linux

User input:
--------------------------------------------------------------
$rem
   JOBTYPE  sp
   EXCHANGE   omegaB97X-D
   BASIS   6-311+G(2df,2pd)
   UNRESTRICTED   True
   max_scf_cycles   250
   geom_opt_max_cycles   1500
   basis2 6-31G*
   scf_algorithm rca_diis
   SYM_IGNORE  TRUE
   print_input   true
   geom_opt_dmax   80
   pop_mulliken false
   XC_GRID 000075000302
$end

$molecule
0 3
N       0.6694261919     1.2771074601     2.4530074854
O       0.4458129895     2.2958867783     1.8980519327
O       1.5801983109     0.9933160675     3.1337688872
N       0.0765247666     -1.2598932760     3.1575782228
O       -0.5240759573     -1.2725341564     4.1706289810
O       -0.3028951715     0.0611062364     2.2872643809
$end
--------------------------------------------------------------

             Standard Nuclear Orientation (Angstroms)
    I     Atom           X                Y                Z
 ----------------------------------------------------------------
    1      N       0.6694261919     1.2771074601     2.4530074854
    2      O       0.4458129895     2.2958867783     1.8980519327
    3      O       1.5801983109     0.9933160675     3.1337688872
    4      N       0.0765247666    -1.2598932760     3.1575782228
    5      O      -0.5240759573    -1.2725341564     4.1706289810
    6      O      -0.3028951715     0.0611062364     2.2872643809
 ----------------------------------------------------------------

    7    -409.9091420347      8.80E-05 Convergence criterion met
   10    -410.0648739153      5.95E-06 Convergence criterion met
 Total energy in the final basis set = -410.06487392

                    Orbital Energies (a.u.)
 --------------------------------------------------------------

 Alpha MOs
 -- Occupied --
-19.4007 -19.3968 -19.3634 -19.3488 -14.7666 -14.6184  -1.4400  -1.3660
 -1.2619  -1.1699  -0.8607  -0.7775  -0.7183  -0.7108  -0.6790  -0.6565
 -0.6343  -0.6290  -0.4942  -0.4818  -0.4686  -0.4596  -0.4462  -0.3384

 Beta MOs
 -- Occupied --
-19.3839 -19.3811 -19.3621 -19.3492 -14.7659 -14.6022  -1.4377  -1.3260
 -1.2602  -1.1310  -0.8208  -0.7458  -0.7094  -0.7044  -0.6737  -0.5980
 -0.5791  -0.5588  -0.4695  -0.4657  -0.4589  -0.4458

                    Cartesian Multipole Moments
 -----------------------------------------------------------------
    Charge (ESU x 10^10)
                 0.0000
    Dipole Moment (Debye)
         X      -0.1230      Y      -0.4412      Z       0.0992
       Tot       0.4686
    Quadrupole Moments (Debye-Ang)
        XX     -33.0693     XY      -0.6986     YY     -32.5296
        XZ      -1.3991     YZ      -0.4940     ZZ     -31.7768

 Total job time:  14.72s(wall), 78.71s(cpu)
        *  Thank you very much for using Q-Chem.  Have a nice day.  *
