 Q-Chem 5.3 (devel), Q-Chem, Inc., Pleasanton, CA (2020)
 Q-Chem 5.3.0 for Intel X86 EM64T Linux

User input:
--------------------------------------------------------------
$molecule
0 2
N         -0.41051        0.84137        0.00000
O          0.59885        0.20614       -0.00000
O         -1.57303        0.22802       -0.00000
$end

$rem
   JOBTYPE         freq
   EXCHANGE omegaB97X-D
   BASIS 6-311+G(2df,2pd)
   XC_GRID 000075000302
   SCF_ALGORITHM DIIS
   MAX_SCF_CYCLES 150
   SCF_CONVERGENCE 8
   SYM_IGNORE TRUE
   SYMMETRY FALSE
   WAVEFUNCTION_ANALYSIS FALSE
   UNRESTRICTED  TRUE
$end

--------------------------------------------------------------

             Standard Nuclear Orientation (Angstroms)
    I     Atom           X                Y                Z
 ----------------------------------------------------------------
    1      N      -0.4105100000     0.8413700000     0.0000000000
    2      O       0.5988500000     0.2061400000     0.0000000000
    3      O      -1.5730300000     0.2280200000     0.0000000000
 ----------------------------------------------------------------

   19    -205.0547620780      5.26e-09  Convergence criterion met
 Total energy in the final basis set =     -205.0547620780
 Frequency:       672.93                 824.83                1530.27
 Force Cnst:      3.9108                 6.2518                20.5869
 Red. Mass:      14.6580                15.5964                14.9213
 IR Intens:       50.249                 23.358                229.193

 STANDARD THERMODYNAMIC QUANTITIES AT   298.15 K  AND     1.00 ATM

   This Molecule has  0 Imaginary Frequencies
   Zero point vibrational energy:        4.329 kcal/mol

   Atom    1 Element N  Has Mass   14.00307
   Atom    2 Element O  Has Mass   15.99491
   Atom    3 Element O  Has Mass   15.99491
   Molecular Mass:    45.992890 amu
   Principal axes and moments of inertia in amu*Bohr^2:
                             1           2           3
    Eigenvalues --       13.56838   134.92137   148.48975
          X               1.00000    -0.00252     0.00000
          Y               0.00252     1.00000     0.00000
          Z               0.00000     0.00000     1.00000
   Rotational Symmetry Number is   1
   The Molecule is an Asymmetric Top
   Translational Enthalpy:        0.889 kcal/mol
   Rotational Enthalpy:           0.889 kcal/mol
   Vibrational Enthalpy:          4.454 kcal/mol
   gas constant (RT):             0.592 kcal/mol
   Translational Entropy:        37.403  cal/mol.K
   Rotational Entropy:           20.236  cal/mol.K
   Vibrational Entropy:           0.538  cal/mol.K

   Total Enthalpy:                6.824 kcal/mol
   Total Entropy:                58.177  cal/mol.K

 Total job time:  35.55s(wall), 204.66s(cpu)
        *  Thank you very much for using Q-Chem.  Have a nice day.  *
