 Q-Chem 5.3 (devel), Q-Chem, Inc., Pleasanton, CA (2020)
 Q-Chem 5.3.0 for Intel X86 EM64T Linux

User input:
--------------------------------------------------------------
$molecule
0 2
N        -0.0002461962   -0.0514068086    0.0000000000
O         0.0001839201   -1.2451142705    0.0000000000
O        -1.0263996066    0.6463984638    0.0000000000
O         1.0264621645    0.6461945373    0.0000000000
$end

$rem
   JOBTYPE         freq
   EXCHANGE omegaB97X-D
   BASIS 6-311+G(2df,2pd)
   XC_GRID 000075000302
   SCF_ALGORITHM DIIS
   MAX_SCF_CYCLES 150
   SCF_CONVERGENCE 8
   SYM_IGNORE TRUE
   SYMMETRY FALSE
   WAVEFUNCTION_ANALYSIS FALSE
   UNRESTRICTED  TRUE
$end

--------------------------------------------------------------

             Standard Nuclear Orientation (Angstroms)
    I     Atom           X                Y                Z
 ----------------------------------------------------------------
    1      N      -0.0002461962    -0.0514068086     0.0000000000
    2      O       0.0001839201    -1.2451142705     0.0000000000
    3      O      -1.0263996066     0.6463984638     0.0000000000
    4      O       1.0264621645     0.6461945373     0.0000000000
 ----------------------------------------------------------------

   17    -280.2256609924      6.50e-09  Convergence criterion met
 Total energy in the final basis set =     -280.2256609924
 Frequency:       374.39                 422.94                 819.27
 Force Cnst:      1.2822                 1.5722                 5.6987
 Red. Mass:      15.5250                14.9177                14.4102
 IR Intens:        0.458                 68.042                 13.363
 Frequency:       914.40                1146.39                1527.79
 Force Cnst:      7.5927                12.3308                20.4527
 Red. Mass:      15.4127                15.9249                14.8722
 IR Intens:       41.536                  5.243                167.208

 STANDARD THERMODYNAMIC QUANTITIES AT   298.15 K  AND     1.00 ATM

   This Molecule has  0 Imaginary Frequencies
   Zero point vibrational energy:        7.441 kcal/mol

   Atom    1 Element N  Has Mass   14.00307
   Atom    2 Element O  Has Mass   15.99491
   Atom    3 Element O  Has Mass   15.99491
   Atom    4 Element O  Has Mass   15.99491
   Molecular Mass:    61.987800 amu
   Principal axes and moments of inertia in amu*Bohr^2:
                             1           2           3
    Eigenvalues --      120.35631   136.40101   256.75732
          X              -0.00138     1.00000     0.00000
          Y               1.00000     0.00138     0.00000
          Z               0.00000     0.00000     1.00000
   Rotational Symmetry Number is   1
   The Molecule is an Asymmetric Top
   Translational Enthalpy:        0.889 kcal/mol
   Rotational Enthalpy:           0.889 kcal/mol
   Vibrational Enthalpy:          7.926 kcal/mol
   gas constant (RT):             0.592 kcal/mol
   Translational Entropy:        38.292  cal/mol.K
   Rotational Entropy:           22.959  cal/mol.K
   Vibrational Entropy:           2.330  cal/mol.K

   Total Enthalpy:               10.296 kcal/mol
   Total Entropy:                63.581  cal/mol.K

 Total job time:  102.33s(wall), 453.72s(cpu)
        *  Thank you very much for using Q-Chem.  Have a nice day.  *
