 Q-Chem 5.3 (devel), Q-Chem, Inc., Pleasanton, CA (2020)
 Q-Chem 5.3.0 for Intel X86 EM64T Linux

User input:
--------------------------------------------------------------
$molecule
0 3
N        0.6893650303      1.2095750506      2.4771852446
O        0.3808388574      2.1834096018      1.8662436269
O        1.6107105335      0.9736218683      3.1813335050
N        0.0289321641     -1.1501946041      3.1366548868
O       -0.4742518469     -1.3252226030      4.1765842817
O       -0.2906036084      0.2037997963      2.2622983450
$end

$rem
   JOBTYPE         freq
   EXCHANGE omegaB97X-D
   BASIS 6-311+G(2df,2pd)
   XC_GRID 000075000302
   SCF_ALGORITHM DIIS
   MAX_SCF_CYCLES 150
   SCF_CONVERGENCE 8
   SYM_IGNORE TRUE
   SYMMETRY FALSE
   WAVEFUNCTION_ANALYSIS FALSE
   UNRESTRICTED  TRUE
$end

--------------------------------------------------------------

             Standard Nuclear Orientation (Angstroms)
    I     Atom           X                Y                Z
 ----------------------------------------------------------------
    1      N       0.6893650303     1.2095750506     2.4771852446
    2      O       0.3808388574     2.1834096018     1.8662436269
    3      O       1.6107105335     0.9736218683     3.1813335050
    4      N       0.0289321641    -1.1501946041     3.1366548868
    5      O      -0.4742518469    -1.3252226030     4.1765842817
    6      O      -0.2906036084     0.2037997963     2.2622983450
 ----------------------------------------------------------------

   19    -410.0815642222      8.16e-09  Convergence criterion met
 Total energy in the final basis set =     -410.0815642222
 Frequency:      -606.11                  75.56                  96.50
 Force Cnst:      3.2239                 0.0525                 0.0876
 Red. Mass:      14.8949                15.6153                15.9668
 IR Intens:       24.236                  0.192                  0.199
 Frequency:       280.62                 363.19                 561.31
 Force Cnst:      0.6842                 1.1940                 2.8566
 Red. Mass:      14.7471                15.3632                15.3882
 IR Intens:        1.543                  1.644                  2.685
 Frequency:       686.95                 780.49                 867.16
 Force Cnst:      4.4119                 5.1741                 6.6571
 Red. Mass:      15.8683                14.4160                15.0258
 IR Intens:        2.315                 12.339                178.630
 Frequency:      1374.28                1714.28                1790.41
 Force Cnst:     17.0759                25.9074                27.5601
 Red. Mass:      15.3456                14.9627                14.5924
 IR Intens:      252.628                 47.444                410.941

 STANDARD THERMODYNAMIC QUANTITIES AT   298.15 K  AND     1.00 ATM

   This Molecule has  1 Imaginary Frequencies
   Zero point vibrational energy:       12.281 kcal/mol

   Atom    1 Element N  Has Mass   14.00307
   Atom    2 Element O  Has Mass   15.99491
   Atom    3 Element O  Has Mass   15.99491
   Atom    4 Element N  Has Mass   14.00307
   Atom    5 Element O  Has Mass   15.99491
   Atom    6 Element O  Has Mass   15.99491
   Molecular Mass:    91.985780 amu
   Principal axes and moments of inertia in amu*Bohr^2:
                             1           2           3
    Eigenvalues --      171.75893   736.42215   855.36392
          X               0.29107     0.81719    -0.49748
          Y               0.85415     0.01226     0.51988
          Z              -0.43094     0.57624     0.69443
   Rotational Symmetry Number is   1
   The Molecule is an Asymmetric Top
   Translational Enthalpy:        0.889 kcal/mol
   Rotational Enthalpy:           0.889 kcal/mol
   Vibrational Enthalpy:         14.021 kcal/mol
   gas constant (RT):             0.592 kcal/mol
   Translational Entropy:        39.469  cal/mol.K
   Rotational Entropy:           26.184  cal/mol.K
   Vibrational Entropy:          11.419  cal/mol.K

   Total Enthalpy:               16.391 kcal/mol
   Total Entropy:                77.072  cal/mol.K

 Total job time:  430.78s(wall), 1555.16s(cpu)
        *  Thank you very much for using Q-Chem.  Have a nice day.  *
