 Q-Chem 5.3 (devel), Q-Chem, Inc., Pleasanton, CA (2020)
 Q-Chem 5.3.0 for Intel X86 EM64T Linux

User input:
--------------------------------------------------------------
$molecule
0 3
N        0.6893650303      1.2095750506      2.4771852446
O        0.3808388574      2.1834096018      1.8662436269
O        1.6107105335      0.9736218683      3.1813335050
N        0.0289321641     -1.1501946041      3.1366548868
O       -0.4742518469     -1.3252226030      4.1765842817
O       -0.2906036084      0.2037997963      2.2622983450
$end

$rem
   JOBTYPE         ts
   EXCHANGE omegaB97X-D
   BASIS 6-311+G(2df,2pd)
   XC_GRID 000075000302
   SCF_ALGORITHM DIIS
   MAX_SCF_CYCLES 150
   SCF_CONVERGENCE 8
   SYM_IGNORE TRUE
   SYMMETRY FALSE
   WAVEFUNCTION_ANALYSIS FALSE
   UNRESTRICTED  TRUE
$end

--------------------------------------------------------------

   19    -410.0815642222      8.16e-09  Convergence criterion met
 Total energy in the final basis set =     -410.0815642222
   18    -410.0812967300      5.46e-09  Convergence criterion met
 Total energy in the final basis set =     -410.0812967300
   18    -410.0756516194      7.24e-09  Convergence criterion met
 Total energy in the final basis set =     -410.0756516194
   18    -410.0812523980      5.92e-09  Convergence criterion met
 Total energy in the final basis set =     -410.0812523980
   14    -410.0812220612      8.69e-09  Convergence criterion met
 Total energy in the final basis set =     -410.0812220612
   17    -410.0812523267      4.76e-09  Convergence criterion met
 Total energy in the final basis set =     -410.0812523267
   17    -410.0810288869      8.07e-09  Convergence criterion met
 Total energy in the final basis set =     -410.0810288869
   18    -410.0814346659      6.03e-09  Convergence criterion met
 Total energy in the final basis set =     -410.0815622325
   12    -410.0815635910      7.54e-09  Convergence criterion met
 Total energy in the final basis set =     -410.0815635910
   15    -410.0815624684      3.94e-09  Convergence criterion met
 Total energy in the final basis set =     -410.0815624684
   14    -410.0815627092      8.91e-09  Convergence criterion met
 Total energy in the final basis set =     -410.0815627092
 Final energy is   -410.081562709214
 **  OPTIMIZATION CONVERGED  **
 Total job time:  984.09s(wall), 5592.63s(cpu)
        *  Thank you very much for using Q-Chem.  Have a nice day.  *

User input: 2 of 3

                  Welcome to Q-Chem
     A Quantum Leap Into The Future Of Chemistry

 Q-Chem 5.3 (devel), Q-Chem, Inc., Pleasanton, CA (2020)

 Yihan Shao,  Zhengting Gan,  E. Epifanovsky,  A. T. B. Gilbert,  M. Wormit,
 J. Kussmann,  A. W. Lange,  A. Behn,  Jia Deng,  Xintian Feng,  D. Ghosh,
 M. Goldey,  P. R. Horn,  L. D. Jacobson,  I. Kaliman,  T. Kus,  A. Landau,
 Jie Liu,  E. I. Proynov,  R. M. Richard,  R. P. Steele,  E. J. Sundstrom,
 H. L. Woodcock III,  P. M. Zimmerman,  D. Zuev,  B. Alam,  B. Albrecht,
 E. Alguire,  S. A. Baeppler,  D. Barton,  Z. Benda,  Y. A. Bernard,
 E. J. Berquist,  K. B. Bravaya,  H. Burton,  K. Carter-Fenk,  D. Casanova,
 Chun-Min Chang,  Yunqing Chen,  A. Chien,  K. D. Closser,  M. P. Coons,
 S. Coriani,  S. Dasgupta,  A. L. Dempwolff,  M. Diedenhofen,  Hainam Do,
 R. G. Edgar,  Po-Tung Fang,  S. Faraji,  S. Fatehi,  Qingguo Feng,
 J. Fosso-Tande,  J. Gayvert,  Qinghui Ge,  A. Ghysels,  G. Gidofalvi,
 J. Gomes,  J. Gonthier,  A. Gunina,  D. Hait,  M. W. D. Hanson-Heine,
 P. H. P. Harbach,  A. W. Hauser,  M. F. Herbst,  J. E. Herr,
 E. G. Hohenstein,  Z. C. Holden,  Kerwin Hui,  B. C. Huynh,  T.-C. Jagau,
 Hyunjun Ji,  B. Kaduk,  K. Khistyaev,  Jaehoon Kim,  P. Klunzinger,  K. Koh,
 D. Kosenkov,  L. Koulias,  T. Kowalczyk,  C. M. Krauter,  A. Kunitsa,
 Ka Un Lao,  A. Laurent,  K. V. Lawler,  Joonho Lee,  D. Lefrancois,
 S. Lehtola,  D. S. Levine,  Yi-Pei Li,  You-Sheng Lin,  Fenglai Liu,
 Kuan-Yu Liu,  E. Livshits,  M. Loipersberger,  A. Luenser,  P. Manohar,
 E. Mansoor,  S. F. Manzer,  Shan-Ping Mao,  Yuezhi Mao,  N. Mardirossian,
 A. V. Marenich,  T. Markovich,  L. A. Martinez-Martinez,  S. A. Maurer,
 N. J. Mayhall,  S. C. McKenzie,  J.-M. Mewes,  P. Morgante,  A. F. Morrison,
 J. W. Mullinax,  K. Nanda,  T. S. Nguyen-Beck,  R. Olivares-Amaya,
 K. J. Oosterbaan,  J. A. Parkhill,  S. K. Paul,  F. Pavosevic,  Zheng Pei,
 T. M. Perrine,  F. Plasser,  P. Pokhilko,  S. Prager,  A. Prociuk,
 E. Ramos,  B. Rana,  D. R. Rehn,  F. Rob,  M. Scheurer,  M. Schneider,
 N. Sergueev,  S. M. Sharada,  S. Sharma,  D. W. Small,  T. Stauch,
 C. J. Stein,  T. Stein,  Yu-Chuan Su,  S. P. Veccham,  Zhen Tao,
 A. J. W. Thom,  A. Tkatchenko,  T. Tsuchimochi,  N. M. Tubman,  L. Vogt,
 M. L. Vidal,  O. Vydrov,  M. A. Watson,  J. Wenzel,  M. de Wergifosse,
 T. A. Wesolowski,  A. White,  J. Witte,  A. Yamada,  Jun Yang,  K. Yao,
 S. Yeganeh,  S. R. Yost,  Zhi-Qiang You,  A. Zech,  Igor Ying Zhang,
 Xing Zhang,  Yan Zhao,  Ying Zhu,  B. R. Brooks,  G. K. L. Chan,
 C. J. Cramer,  M. S. Gordon,  W. J. Hehre,  A. Klamt,  M. W. Schmidt,
 C. D. Sherrill,  D. G. Truhlar,  A. Aspuru-Guzik,  R. Baer,  A. T. Bell,
 N. A. Besley,  Jeng-Da Chai,  A. E. DePrince, III,  R. A. DiStasio Jr.,
 A. Dreuw,  B. D. Dunietz,  T. R. Furlani,  Chao-Ping Hsu,  Yousung Jung,
 Jing Kong,  D. S. Lambrecht,  WanZhen Liang,  C. Ochsenfeld,
 V. A. Rassolov,  L. V. Slipchenko,  J. E. Subotnik,  T. Van Voorhis,
 J. M. Herbert,  A. I. Krylov,  P. M. W. Gill,  M. Head-Gordon

 Contributors to earlier versions of Q-Chem not listed above:
 R. D. Adamson,  B. Austin,  J. Baker,  G. J. O. Beran,  K. Brandhorst,
 S. T. Brown,  E. F. C. Byrd,  A. K. Chakraborty,  C.-L. Cheng,
 Siu Hung Chien,  D. M. Chipman,  D. L. Crittenden,  H. Dachsel,
 R. J. Doerksen,  A. D. Dutoi,  L. Fusti-Molnar,  W. A. Goddard III,
 A. Golubeva-Zadorozhnaya,  S. R. Gwaltney,  G. Hawkins,  A. Heyden,
 S. Hirata,  G. Kedziora,  F. J. Keil,  C. Kelley,  Jihan Kim,  R. A. King,
 R. Z. Khaliullin,  P. P. Korambath,  W. Kurlancheek,  A. M. Lee,  M. S. Lee,
 S. V. Levchenko,  Ching Yeh Lin,  D. Liotard,  R. C. Lochan,  I. Lotan,
 P. E. Maslen,  N. Nair,  D. P. O'Neill,  D. Neuhauser,  E. Neuscamman,
 C. M. Oana,  R. Olson,  B. Peters,  R. Peverati,  P. A. Pieniazek,
 Y. M. Rhee,  J. Ritchie,  M. A. Rohrdanz,  E. Rosta,  N. J. Russ,
 H. F. Schaefer III,  N. E. Schultz,  N. Shenvi,  A. C. Simmonett,  A. Sodt,
 D. Stuck,  K. S. Thanthiriwatte,  V. Vanovschi,  Tao Wang,  A. Warshel,
 C. F. Williams,  Q. Wu,  X. Xu,  W. Zhang

 Please cite Q-Chem as follows:
 Y. Shao et al., Mol. Phys. 113, 184-215 (2015)
 DOI: 10.1080/00268976.2014.952696

 Q-Chem 5.3.0 for Intel X86 EM64T Linux

 Parts of Q-Chem use Armadillo 9.800.1 (Horizon Scraper).
 http://arma.sourceforge.net/

 Q-Chem begins on Sun Jul 12 15:42:59 2020

Host: centos77-c2
0

     Scratch files written to /tmp/28899.centos77-h1/qchem97920//
Processing $rem in /opt/qchem-5.3.0-intel2020u1//config/preferences:
Processing $rem in /home/shihchengli/.qchemrc:
The previous job contains 0 fragments, simply inherited here

Checking the input file for inconsistencies... 	...done.

--------------------------------------------------------------
User input:
--------------------------------------------------------------

$molecule
read
$end

$rem
   JOBTYPE         freq
   EXCHANGE omegaB97X-D
   BASIS 6-311+G(2df,2pd)
   XC_GRID 000075000302
   SCF_ALGORITHM DIIS
   MAX_SCF_CYCLES 150
   SCF_CONVERGENCE 8
   SYM_IGNORE TRUE
   SYMMETRY FALSE
   WAVEFUNCTION_ANALYSIS FALSE
   UNRESTRICTED  TRUE
$end

--------------------------------------------------------------

   19    -410.0815627092      8.23e-09  Convergence criterion met
 Total energy in the final basis set =     -410.0815627092
 Frequency:      -605.82                  76.28                  96.20
 Force Cnst:      3.2210                 0.0535                 0.0871
 Red. Mass:      14.8956                15.6096                15.9678
 IR Intens:       23.959                  0.191                  0.199
 Frequency:       279.89                 361.74                 561.29
 Force Cnst:      0.6808                 1.1843                 2.8566
 Red. Mass:      14.7492                15.3605                15.3894
 IR Intens:        1.544                  1.620                  2.621
 Frequency:       686.48                 780.69                 867.24
 Force Cnst:      4.4061                 5.1765                 6.6585
 Red. Mass:      15.8690                14.4156                15.0260
 IR Intens:        2.312                 12.378                178.578
 Frequency:      1374.34                1716.10                1790.31
 Force Cnst:     17.0775                25.9618                27.5574
 Red. Mass:      15.3456                14.9624                14.5926
 IR Intens:      252.569                 47.824                411.228

 STANDARD THERMODYNAMIC QUANTITIES AT   298.15 K  AND     1.00 ATM

   This Molecule has  1 Imaginary Frequencies
   Zero point vibrational energy:       12.281 kcal/mol

   Atom    1 Element N  Has Mass   14.00307
   Atom    2 Element O  Has Mass   15.99491
   Atom    3 Element O  Has Mass   15.99491
   Atom    4 Element N  Has Mass   14.00307
   Atom    5 Element O  Has Mass   15.99491
   Atom    6 Element O  Has Mass   15.99491
   Molecular Mass:    91.985780 amu
   Principal axes and moments of inertia in amu*Bohr^2:
                             1           2           3
    Eigenvalues --      171.30454   738.73354   857.96326
          X               0.29120     0.81306    -0.50412
          Y               0.85416     0.01634     0.51976
          Z              -0.43084     0.58195     0.68972
   Rotational Symmetry Number is   1
   The Molecule is an Asymmetric Top
   Translational Enthalpy:        0.889 kcal/mol
   Rotational Enthalpy:           0.889 kcal/mol
   Vibrational Enthalpy:         14.022 kcal/mol
   gas constant (RT):             0.592 kcal/mol
   Translational Entropy:        39.469  cal/mol.K
   Rotational Entropy:           26.187  cal/mol.K
   Vibrational Entropy:          11.418  cal/mol.K

   Total Enthalpy:               16.392 kcal/mol
   Total Entropy:                77.074  cal/mol.K

 Q-Chem 5.3 (devel), Q-Chem, Inc., Pleasanton, CA (2020)
 Q-Chem 5.3.0 for Intel X86 EM64T Linux
   19    -410.0815627092      8.23e-09  Convergence criterion met
 Total energy in the final basis set =     -410.0815627092

             Standard Nuclear Orientation (Angstroms)
    I     Atom           X                Y                Z
 ----------------------------------------------------------------
    1      N       0.6877539257     1.2105143434     2.4777162057
    2      O       0.3799464281     2.1800146099     1.8595030004
    3      O       1.6027221962     0.9832628380     3.1929848041
    4      N       0.0353553176    -1.1510459660     3.1391660238
    5      O      -0.4771174168    -1.3257843361     4.1745324610
    6      O      -0.2836693207     0.1980276207     2.2563973950
 ----------------------------------------------------------------

   14    -410.0815638300      5.31e-09  Convergence criterion met
 Total energy in the final basis set =     -410.0815638300
 Final energy is   -410.081563829987
 **  OPTIMIZATION CONVERGED  **
 Total job time:  80.35s(wall), 440.46s(cpu)
        *  Thank you very much for using Q-Chem.  Have a nice day.  *
