 Q-Chem 5.2 (devel), Q-Chem, Inc., Pleasanton, CA (2019)
 Q-Chem 5.2.2 for Intel X86 EM64T Linux

User input:
--------------------------------------------------------------
$comment
Optimize C3H8 at omegaB97X-D/6-311+G(2df,2pd)
$end

$rem
JOBTYPE opt
EXCHANGE omegaB97X-D
BASIS 6-311+G(2df,2pd)
XC_GRID 000075000302
$end

$molecule
0 1
C         -1.63410        0.50899        0.00500
C         -0.25573        1.15782       -0.07731
H         -1.75819       -0.01173        0.97846
H         -1.76614       -0.22301       -0.82017
H         -2.41867        1.28975       -0.08324
C          0.85418        0.11763        0.03997
H         -0.15075        1.89871        0.74440
H         -0.15868        1.68802       -1.04923
H          0.78573       -0.41184        1.01420
H          1.84262        0.61953       -0.02336
H          0.77777       -0.62312       -0.78442
$end

--------------------------------------------------------------

   11    -119.1436217499      1.33e-09  Convergence criterion met
 Total energy in the final basis set =     -119.1436217499
    9    -119.1460454805      3.89e-09  Convergence criterion met
 Total energy in the final basis set =     -119.1460454805
    7    -119.1460738181      7.45e-09  Convergence criterion met
 Total energy in the final basis set =     -119.1460738181
    6    -119.1460758297      6.63e-09  Convergence criterion met
 Total energy in the final basis set =     -119.1460758297
 Final energy is   -119.146075829709
 **  OPTIMIZATION CONVERGED  **
 Total job time:  292.81s(wall), 563.99s(cpu)
        *  Thank you very much for using Q-Chem.  Have a nice day.  *

User input: 2 of 3

                  Welcome to Q-Chem
     A Quantum Leap Into The Future Of Chemistry

 Q-Chem 5.2 (devel), Q-Chem, Inc., Pleasanton, CA (2019)

 Yihan Shao,  Zhengting Gan,  E. Epifanovsky,  A. T. B. Gilbert,  M. Wormit,
 J. Kussmann,  A. W. Lange,  A. Behn,  Jia Deng,  Xintian Feng,  D. Ghosh,
 M. Goldey,  P. R. Horn,  L. D. Jacobson,  I. Kaliman,  T. Kus,  A. Landau,
 Jie Liu,  E. I. Proynov,  R. M. Richard,  R. P. Steele,  E. J. Sundstrom,
 H. L. Woodcock III,  P. M. Zimmerman,  D. Zuev,  B. Alam,  B. Albrecht,
 E. Alguire,  S. A. Baeppler,  D. Barton,  Z. Benda,  Y. A. Bernard,
 E. J. Berquist,  K. B. Bravaya,  H. Burton,  K. Carter-Fenk,  D. Casanova,
 Chun-Min Chang,  Yunqing Chen,  A. Chien,  K. D. Closser,  M. P. Coons,
 S. Coriani,  S. Dasgupta,  A. L. Dempwolff,  M. Diedenhofen,  Hainam Do,
 R. G. Edgar,  Po-Tung Fang,  S. Faraji,  S. Fatehi,  Qingguo Feng,
 J. Fosso-Tande,  J. Gayvert,  Qinghui Ge,  A. Ghysels,  G. Gidofalvi,
 J. Gomes,  J. Gonthier,  A. Gunina,  D. Hait,  M. W. D. Hanson-Heine,
 P. H. P. Harbach,  A. W. Hauser,  M. F. Herbst,  J. E. Herr,
 E. G. Hohenstein,  Z. C. Holden,  Kerwin Hui,  B. C. Huynh,  T.-C. Jagau,
 Hyunjun Ji,  B. Kaduk,  K. Khistyaev,  Jaehoon Kim,  P. Klunzinger,  K. Koh,
 D. Kosenkov,  L. Koulias,  T. Kowalczyk,  C. M. Krauter,  A. Kunitsa,
 Ka Un Lao,  A. Laurent,  K. V. Lawler,  Joonho Lee,  D. Lefrancois,
 S. Lehtola,  D. S. Levine,  Yi-Pei Li,  You-Sheng Lin,  Fenglai Liu,
 Kuan-Yu Liu,  E. Livshits,  M. Loipersberger,  A. Luenser,  P. Manohar,
 E. Mansoor,  S. F. Manzer,  Shan-Ping Mao,  Yuezhi Mao,  N. Mardirossian,
 A. V. Marenich,  T. Markovich,  L. A. Martinez-Martinez,  S. A. Maurer,
 N. J. Mayhall,  S. C. McKenzie,  J.-M. Mewes,  P. Morgante,  A. F. Morrison,
 J. W. Mullinax,  K. Nanda,  T. S. Nguyen-Beck,  R. Olivares-Amaya,
 J. A. Parkhill,  S. K. Paul,  Zheng Pei,  T. M. Perrine,  F. Plasser,
 P. Pokhilko,  S. Prager,  A. Prociuk,  E. Ramos,  B. Rana,  D. R. Rehn,
 F. Rob,  M. Scheurer,  M. Schneider,  N. Sergueev,  S. M. Sharada,
 S. Sharma,  D. W. Small,  T. Stauch,  C. J. Stein,  T. Stein,  Yu-Chuan Su,
 S. P. Veccham,  A. J. W. Thom,  A. Tkatchenko,  T. Tsuchimochi,
 N. M. Tubman,  L. Vogt,  M. L. Vidal,  O. Vydrov,  M. A. Watson,  J. Wenzel,
 M. de Wergifosse,  T. A. Wesolowski,  A. White,  J. Witte,  A. Yamada,
 Jun Yang,  K. Yao,  S. Yeganeh,  S. R. Yost,  Zhi-Qiang You,  A. Zech,
 Igor Ying Zhang,  Xing Zhang,  Yan Zhao,  Ying Zhu,  B. R. Brooks,
 G. K. L. Chan,  C. J. Cramer,  M. S. Gordon,  W. J. Hehre,  A. Klamt,
 M. W. Schmidt,  C. D. Sherrill,  D. G. Truhlar,  A. Aspuru-Guzik,  R. Baer,
 A. T. Bell,  N. A. Besley,  Jeng-Da Chai,  A. E. DePrince, III,
 R. A. DiStasio Jr.,  A. Dreuw,  B. D. Dunietz,  T. R. Furlani,
 Chao-Ping Hsu,  Yousung Jung,  Jing Kong,  D. S. Lambrecht,  WanZhen Liang,
 C. Ochsenfeld,  V. A. Rassolov,  L. V. Slipchenko,  J. E. Subotnik,
 T. Van Voorhis,  J. M. Herbert,  A. I. Krylov,  P. M. W. Gill,  M. Head-Gordon

 Contributors to earlier versions of Q-Chem not listed above:
 R. D. Adamson,  B. Austin,  J. Baker,  G. J. O. Beran,  K. Brandhorst,
 S. T. Brown,  E. F. C. Byrd,  A. K. Chakraborty,  C.-L. Cheng,
 Siu Hung Chien,  D. M. Chipman,  D. L. Crittenden,  H. Dachsel,
 R. J. Doerksen,  A. D. Dutoi,  L. Fusti-Molnar,  W. A. Goddard III,
 A. Golubeva-Zadorozhnaya,  S. R. Gwaltney,  G. Hawkins,  A. Heyden,
 S. Hirata,  G. Kedziora,  F. J. Keil,  C. Kelley,  Jihan Kim,  R. A. King,
 R. Z. Khaliullin,  P. P. Korambath,  W. Kurlancheek,  A. M. Lee,  M. S. Lee,
 S. V. Levchenko,  Ching Yeh Lin,  D. Liotard,  R. C. Lochan,  I. Lotan,
 P. E. Maslen,  N. Nair,  D. P. O'Neill,  D. Neuhauser,  E. Neuscamman,
 C. M. Oana,  R. Olson,  B. Peters,  R. Peverati,  P. A. Pieniazek,
 Y. M. Rhee,  J. Ritchie,  M. A. Rohrdanz,  E. Rosta,  N. J. Russ,
 H. F. Schaefer III,  N. E. Schultz,  N. Shenvi,  A. C. Simmonett,  A. Sodt,
 D. Stuck,  K. S. Thanthiriwatte,  V. Vanovschi,  Tao Wang,  A. Warshel,
 C. F. Williams,  Q. Wu,  X. Xu,  W. Zhang

 Please cite Q-Chem as follows:
 Y. Shao et al., Mol. Phys. 113, 184-215 (2015)
 DOI: 10.1080/00268976.2014.952696

 Q-Chem 5.2.2 for Intel X86 EM64T Linux

 Parts of Q-Chem use Armadillo 9.800.1 (Horizon Scraper).
 http://arma.sourceforge.net/

 Q-Chem begins on Wed Mar 11 15:11:06 2020

Host: cn0318
0

     Scratch files written to /tmp/ypli/6315831.srvc1/qchem181696//
The previous job contains 0 fragments, simply inherited here

Checking the input file for inconsistencies... 	...done.

--------------------------------------------------------------
User input:
--------------------------------------------------------------

$comment
Now calculate the frequency of C3H8 at omegaB97X-D/6-311+G(2df,2pd)
$end

$rem
JOBTYPE freq
EXCHANGE omegaB97X-D
BASIS 6-311+G(2df,2pd)
XC_GRID 000075000302
$end

$molecule
read
$end

--------------------------------------------------------------

   11    -119.1454790873      1.38e-09  Convergence criterion met
 Total energy in the final basis set =     -119.1454790873
 Frequency:       247.72                 297.55                 381.05
 Force Cnst:      0.0372                 0.0592                 0.1762
 Red. Mass:       1.0278                 1.1350                 2.0597
 IR Intens:        0.000                  0.001                  0.066
 Frequency:       766.04                 887.89                 926.29
 Force Cnst:      0.3734                 1.1752                 0.5576
 Red. Mass:       1.0800                 2.5301                 1.1030
 IR Intens:        3.330                  0.937                  0.000
 Frequency:       946.74                1074.84                1189.44
 Force Cnst:      0.6323                 1.6264                 1.4929
 Red. Mass:       1.1973                 2.3895                 1.7910
 IR Intens:        1.873                  0.841                  1.191
 Frequency:      1224.37                1328.88                1380.86
 Force Cnst:      1.4690                 1.1695                 1.5459
 Red. Mass:       1.6632                 1.1240                 1.3760
 IR Intens:        0.164                  0.000                  0.883
 Frequency:      1418.85                1431.46                1499.66
 Force Cnst:      1.5692                 1.4920                 1.3740
 Red. Mass:       1.3230                 1.2358                 1.0369
 IR Intens:        6.572                  3.994                  0.000
 Frequency:      1502.64                1504.91                1517.68
 Force Cnst:      1.3829                 1.4037                 1.4117
 Red. Mass:       1.0395                 1.0520                 1.0402
 IR Intens:        0.053                  2.605                 15.488
 Frequency:      1521.16                3039.01                3040.88
 Force Cnst:      1.4823                 5.6348                 5.6445
 Red. Mass:       1.0873                 1.0355                 1.0360
 IR Intens:        6.841                 36.260                 18.597
 Frequency:      3047.33                3074.94                3106.69
 Force Cnst:      5.8052                 6.1377                 6.2683
 Red. Mass:       1.0610                 1.1018                 1.1023
 IR Intens:       29.659                  1.971                  0.000
 Frequency:      3116.67                3117.22                3119.35
 Force Cnst:      6.3084                 6.3161                 6.3116
 Red. Mass:       1.1023                 1.1032                 1.1009
 IR Intens:       27.083                 91.779                 47.915

 STANDARD THERMODYNAMIC QUANTITIES AT   298.15 K  AND     1.00 ATM

   This Molecule has  0 Imaginary Frequencies
   Zero point vibrational energy:       65.346 kcal/mol

   Atom    1 Element C  Has Mass   12.00000
   Atom    2 Element C  Has Mass   12.00000
   Atom    3 Element H  Has Mass    1.00783
   Atom    4 Element H  Has Mass    1.00783
   Atom    5 Element H  Has Mass    1.00783
   Atom    6 Element C  Has Mass   12.00000
   Atom    7 Element H  Has Mass    1.00783
   Atom    8 Element H  Has Mass    1.00783
   Atom    9 Element H  Has Mass    1.00783
   Atom   10 Element H  Has Mass    1.00783
   Atom   11 Element H  Has Mass    1.00783
   Molecular Mass:    44.062640 amu
   Principal axes and moments of inertia in amu*Bohr^2:
                             1           2           3
    Eigenvalues --       61.01120   212.54275   240.22994
          X               1.00000    -0.00000     0.00000
          Y              -0.00000    -0.00000     1.00000
          Z               0.00000     1.00000     0.00000
   Rotational Symmetry Number is   2
   The Molecule is an Asymmetric Top
   Translational Enthalpy:        0.889 kcal/mol
   Rotational Enthalpy:           0.889 kcal/mol
   Vibrational Enthalpy:         66.347 kcal/mol
   gas constant (RT):             0.592 kcal/mol
   Translational Entropy:        37.275  cal/mol.K
   Rotational Entropy:           21.281  cal/mol.K
   Vibrational Entropy:           5.120  cal/mol.K

   Total Enthalpy:               68.717 kcal/mol
   Total Entropy:                63.676  cal/mol.K

 Q-Chem 5.2 (devel), Q-Chem, Inc., Pleasanton, CA (2019)
 Q-Chem 5.2.2 for Intel X86 EM64T Linux

             Standard Nuclear Orientation (Angstroms)
    I     Atom           X                Y                Z
 ----------------------------------------------------------------
    1      C       1.2672042126     0.0000000000     0.2594997522
    2      C       0.0000000000     0.0000000000    -0.5872081259
    3      H       1.3052750505    -0.8806643351     0.9038259677
    4      H       1.3052750505     0.8806643351     0.9038259677
    5      H       2.1646165232     0.0000000000    -0.3599948239
    6      C      -1.2672042126    -0.0000000181     0.2594997522
    7      H       0.0000000000    -0.8738729764    -1.2430302913
    8      H      -0.0000000606     0.8738729764    -1.2430302913
    9      H      -1.3052750505    -0.8806643351     0.9038259677
   10      H      -2.1646165232     0.0000006841    -0.3599948239
   11      H      -1.3052750505     0.8806643351     0.9038259677
 ----------------------------------------------------------------

   11    -119.1454790873      1.38e-09  Convergence criterion met
 Total energy in the final basis set =     -119.1454790873
 Final energy is   -119.145479087345
 **  OPTIMIZATION CONVERGED  **

             Orbital Energies (a.u.) and Symmetries
 --------------------------------------------------------------

 Alpha MOs, Restricted
 -- Occupied --
-10.274 -10.265 -10.265  -0.881  -0.777  -0.678  -0.546  -0.524
  1 A1    1 B1    2 A1    3 A1    2 B1    4 A1    1 B2    5 A1
 -0.483  -0.464  -0.419  -0.418  -0.408
  3 B1    1 A2    4 B1    6 A1    2 B2

 Beta MOs, Restricted
 -- Occupied --
-10.274 -10.265 -10.265  -0.881  -0.777  -0.678  -0.546  -0.524
  1 A1    1 B1    2 A1    3 A1    2 B1    4 A1    1 B2    5 A1
 -0.483  -0.464  -0.419  -0.418  -0.408
  3 B1    1 A2    4 B1    6 A1    2 B2

          Ground-State Mulliken Net Atomic Charges

     Atom                 Charge (a.u.)
  ----------------------------------------
      1 C                    -0.103787
      2 C                     0.016539
      3 H                     0.023351
      4 H                     0.023351
      5 H                     0.028596
      6 C                    -0.103784
      7 H                     0.020218
      8 H                     0.020218
      9 H                     0.023356
     10 H                     0.028596
     11 H                     0.023347
  ----------------------------------------
  Sum of atomic charges =     0.000000

                    Cartesian Multipole Moments
 -----------------------------------------------------------------
    Charge (ESU x 10^10)
                 0.0000
    Dipole Moment (Debye)
         X      -0.0000      Y      -0.0000      Z      -0.0861
       Tot       0.0861
    Quadrupole Moments (Debye-Ang)
        XX     -22.1674     XY       0.0000     YY     -21.3638
        XZ      -0.0000     YZ       0.0000     ZZ     -21.8442

 Total job time:  64.14s(wall), 127.35s(cpu)
        *  Thank you very much for using Q-Chem.  Have a nice day.  *
