 Q-Chem 5.2 (devel), Q-Chem, Inc., Pleasanton, CA (2019)
 Q-Chem 5.2.2 for Intel X86 EM64T Linux

User input:
--------------------------------------------------------------
$rem
   JOBTYPE  sp
   EXCHANGE   omegaB97X-D
   BASIS   6-311+G(2df,2pd)
   max_scf_cycles   250
   geom_opt_max_cycles   1500
   basis2 6-31G*
   scf_algorithm rca_diis
   SYM_IGNORE  TRUE
   print_input   true
   geom_opt_dmax   80
   pop_mulliken false
   XC_GRID 000075000302
$end

$molecule
0 1
C       1.2646559289     -0.0465310261     0.2666854830
C       -0.0074313881     -0.1625505430     -0.5646113262
H       1.8769536940     -0.9453295195     0.1694650388
H       1.0282600724     0.0772991104     1.3254496082
H       1.8705737130     0.8057846238     -0.0424570795
C       -1.2602337593     0.1708589873     0.2366676651
H       -0.0899108021     -1.1757993766     -0.9649648757
H       0.0601107051     0.5025905836     -1.4287781879
H       -1.3664176318     -0.5005894312     1.0911029523
H       -2.1613304304     0.0834230207     -0.3711993455
H       -1.2152301623     1.1908442367     0.6236850865
--------------------------------------------------------------

             Standard Nuclear Orientation (Angstroms)
    I     Atom           X                Y                Z
 ----------------------------------------------------------------
    1      C       1.2646559289    -0.0465310261     0.2666854830
    2      C      -0.0074313881    -0.1625505430    -0.5646113262
    3      H       1.8769536940    -0.9453295195     0.1694650388
    4      H       1.0282600724     0.0772991104     1.3254496082
    5      H       1.8705737130     0.8057846238    -0.0424570795
    6      C      -1.2602337593     0.1708589873     0.2366676651
    7      H      -0.0899108021    -1.1757993766    -0.9649648757
    8      H       0.0601107051     0.5025905836    -1.4287781879
    9      H      -1.3664176318    -0.5005894312     1.0911029523
   10      H      -2.1613304304     0.0834230207    -0.3711993455
   11      H      -1.2152301623     1.1908442367     0.6236850865
 ----------------------------------------------------------------

    7    -119.0981481560      4.41E-06 Convergence criterion met
    6    -119.1412403761      3.94E-06 Convergence criterion met
 Total energy in the final basis set = -119.14124038

                    Orbital Energies (a.u.)
 --------------------------------------------------------------

 Alpha MOs
 -- Occupied --
-10.2727 -10.2653 -10.2636  -0.8811  -0.7768  -0.6776  -0.5448  -0.5254
 -0.4799  -0.4680  -0.4189  -0.4160  -0.4026

                    Cartesian Multipole Moments
 -----------------------------------------------------------------
    Charge (ESU x 10^10)
                -0.0000
    Dipole Moment (Debye)
         X       0.0028      Y      -0.0225      Z      -0.0805
       Tot       0.0837
    Quadrupole Moments (Debye-Ang)
        XX     -22.2579     XY       0.0698     YY     -21.3226
        XZ      -0.0709     YZ      -0.1453     ZZ     -21.8201

 Total job time:  40.74s(wall), 112.85s(cpu)
        *  Thank you very much for using Q-Chem.  Have a nice day.  *
