 Q-Chem 5.2 (devel), Q-Chem, Inc., Pleasanton, CA (2019)
 Q-Chem 5.2.2 for Intel X86 EM64T Linux

User input:
--------------------------------------------------------------
$rem
   JOBTYPE  sp
   EXCHANGE   omegaB97X-D
   BASIS   6-311+G(2df,2pd)
   max_scf_cycles   250
   geom_opt_max_cycles   1500
   basis2 6-31G*
   scf_algorithm rca_diis
   SYM_IGNORE  TRUE
   print_input   true
   geom_opt_dmax   80
   pop_mulliken false
   XC_GRID 000075000302
$end

$molecule
0 1
C       1.2440104777     -0.1385320578     0.3291457080
C       -0.0738447516     -0.4698270261     -0.3609434855
H       1.6692550557     0.7861292397     -0.0663714259
H       1.9772053909     -0.9319173371     0.1703192921
H       1.1143072537     -0.0136054901     1.4046823454
C       -1.1929292686     0.4889565248     0.0277923716
H       -0.3678199427     -1.4925573653     -0.1132210300
H       0.0661714478     -0.4463339733     -1.4442757140
H       -1.3725879994     0.4620661291     1.1044462317
H       -2.1285439654     0.2392017251     -0.4735764543
H       -0.9352237588     1.5164202968     -0.2369528202
--------------------------------------------------------------

             Standard Nuclear Orientation (Angstroms)
    I     Atom           X                Y                Z
 ----------------------------------------------------------------
    1      C       1.2440104777    -0.1385320578     0.3291457080
    2      C      -0.0738447516    -0.4698270261    -0.3609434855
    3      H       1.6692550557     0.7861292397    -0.0663714259
    4      H       1.9772053909    -0.9319173371     0.1703192921
    5      H       1.1143072537    -0.0136054901     1.4046823454
    6      C      -1.1929292686     0.4889565248     0.0277923716
    7      H      -0.3678199427    -1.4925573653    -0.1132210300
    8      H       0.0661714478    -0.4463339733    -1.4442757140
    9      H      -1.3725879994     0.4620661291     1.1044462317
   10      H      -2.1285439654     0.2392017251    -0.4735764543
   11      H      -0.9352237588     1.5164202968    -0.2369528202
 ----------------------------------------------------------------

    7    -119.1027095904      4.48E-06 Convergence criterion met
    6    -119.1456208392      3.85E-06 Convergence criterion met
 Total energy in the final basis set = -119.14562084

                    Orbital Energies (a.u.)
 --------------------------------------------------------------

 Alpha MOs
 -- Occupied --
-10.2739 -10.2650 -10.2650  -0.8811  -0.7771  -0.6776  -0.5457  -0.5238
 -0.4828  -0.4642  -0.4183  -0.4175  -0.4072

                    Cartesian Multipole Moments
 -----------------------------------------------------------------
    Charge (ESU x 10^10)
                -0.0000
    Dipole Moment (Debye)
         X      -0.0065      Y      -0.0663      Z      -0.0580
       Tot       0.0883
    Quadrupole Moments (Debye-Ang)
        XX     -22.1439     XY       0.1544     YY     -21.6902
        XZ      -0.1245     YZ      -0.2080     ZZ     -21.5376

 Total job time:  40.17s(wall), 111.66s(cpu)
        *  Thank you very much for using Q-Chem.  Have a nice day.  *
