 Q-Chem 5.2 (devel), Q-Chem, Inc., Pleasanton, CA (2019)
 Q-Chem 5.2.2 for Intel X86 EM64T Linux

User input:
--------------------------------------------------------------
$rem
   JOBTYPE  sp
   EXCHANGE   omegaB97X-D
   BASIS   6-311+G(2df,2pd)
   max_scf_cycles   250
   geom_opt_max_cycles   1500
   basis2 6-31G*
   scf_algorithm rca_diis
   SYM_IGNORE  TRUE
   print_input   true
   geom_opt_dmax   80
   pop_mulliken false
   XC_GRID 000075000302
$end

$molecule
0 1
C       1.1734952247     -0.5292053609     -0.0309225175
C       0.0921488394     0.5093346351     -0.3045239977
H       0.8778719617     -1.5090181454     -0.4113944292
H       1.3516878647     -0.6329621287     1.0413027384
H       2.1189414159     -0.2589072032     -0.5022965843
C       -1.2387474840     0.1508044653     0.3457783159
H       -0.0462870402     0.6157386595     -1.3830785944
H       0.4238749116     1.4850388715     0.0584159173
H       -2.0628373420     0.6820185027     -0.1348055252
H       -1.2497271230     0.4057671105     1.4060109830
H       -1.4404212893     -0.9186087404     0.2565587125
--------------------------------------------------------------

             Standard Nuclear Orientation (Angstroms)
    I     Atom           X                Y                Z
 ----------------------------------------------------------------
    1      C       1.1734952247    -0.5292053609    -0.0309225175
    2      C       0.0921488394     0.5093346351    -0.3045239977
    3      H       0.8778719617    -1.5090181454    -0.4113944292
    4      H       1.3516878647    -0.6329621287     1.0413027384
    5      H       2.1189414159    -0.2589072032    -0.5022965843
    6      C      -1.2387474840     0.1508044653     0.3457783159
    7      H      -0.0462870402     0.6157386595    -1.3830785944
    8      H       0.4238749116     1.4850388715     0.0584159173
    9      H      -2.0628373420     0.6820185027    -0.1348055252
   10      H      -1.2497271230     0.4057671105     1.4060109830
   11      H      -1.4404212893    -0.9186087404     0.2565587125
 ----------------------------------------------------------------

    7    -119.1017524193      4.47E-06 Convergence criterion met
    6    -119.1447068964      3.87E-06 Convergence criterion met
 Total energy in the final basis set = -119.14470690

                    Orbital Energies (a.u.)
 --------------------------------------------------------------

 Alpha MOs
 -- Occupied --
-10.2737 -10.2651 -10.2647  -0.8811  -0.7770  -0.6776  -0.5456  -0.5241
 -0.4822  -0.4650  -0.4183  -0.4172  -0.4063

                    Cartesian Multipole Moments
 -----------------------------------------------------------------
    Charge (ESU x 10^10)
                 0.0000
    Dipole Moment (Debye)
         X       0.0107      Y       0.0740      Z      -0.0461
       Tot       0.0878
    Quadrupole Moments (Debye-Ang)
        XX     -22.1358     XY       0.1601     YY     -21.7394
        XZ       0.1738     YZ       0.1937     ZZ     -21.5003

 Total job time:  40.38s(wall), 112.31s(cpu)
        *  Thank you very much for using Q-Chem.  Have a nice day.  *
