 Q-Chem 5.2 (devel), Q-Chem, Inc., Pleasanton, CA (2019)
 Q-Chem 5.2.2 for Intel X86 EM64T Linux

User input:
--------------------------------------------------------------
$rem
   JOBTYPE  sp
   EXCHANGE   omegaB97X-D
   BASIS   6-311+G(2df,2pd)
   max_scf_cycles   250
   geom_opt_max_cycles   1500
   basis2 6-31G*
   scf_algorithm rca_diis
   SYM_IGNORE  TRUE
   print_input   true
   geom_opt_dmax   80
   pop_mulliken false
   XC_GRID 000075000302
$end

$molecule
0 1
C       1.1232290098     -0.5923361052     -0.1831306895
C       0.1392936890     0.5712960534     -0.1592970947
H       0.7484927153     -1.4067416506     -0.8064316851
H       1.2787433286     -0.9917117820     0.8211114021
H       2.0941824572     -0.2897802456     -0.5766185068
C       -1.2254457550     0.1699972444     0.3876653117
H       0.0236898752     0.9714442677     -1.1693892635
H       0.5498513352     1.3832735973     0.4456028251
H       -1.8796861417     -0.1778958163     -0.4143586086
H       -1.7206713640     1.0048515017     0.8846737216
H       -1.1316792101     -0.6423963987     1.1112176068
--------------------------------------------------------------

             Standard Nuclear Orientation (Angstroms)
    I     Atom           X                Y                Z
 ----------------------------------------------------------------
    1      C       1.1232290098    -0.5923361052    -0.1831306895
    2      C       0.1392936890     0.5712960534    -0.1592970947
    3      H       0.7484927153    -1.4067416506    -0.8064316851
    4      H       1.2787433286    -0.9917117820     0.8211114021
    5      H       2.0941824572    -0.2897802456    -0.5766185068
    6      C      -1.2254457550     0.1699972444     0.3876653117
    7      H       0.0236898752     0.9714442677    -1.1693892635
    8      H       0.5498513352     1.3832735973     0.4456028251
    9      H      -1.8796861417    -0.1778958163    -0.4143586086
   10      H      -1.7206713640     1.0048515017     0.8846737216
   11      H      -1.1316792101    -0.6423963987     1.1112176068
 ----------------------------------------------------------------

    7    -119.1004359416      4.44E-06 Convergence criterion met
    6    -119.1434419820      3.91E-06 Convergence criterion met
 Total energy in the final basis set = -119.14344198

                    Orbital Energies (a.u.)
 --------------------------------------------------------------

 Alpha MOs
 -- Occupied --
-10.2733 -10.2652 -10.2643  -0.8811  -0.7769  -0.6776  -0.5452  -0.5250
 -0.4813  -0.4657  -0.4185  -0.4174  -0.4047

                    Cartesian Multipole Moments
 -----------------------------------------------------------------
    Charge (ESU x 10^10)
                -0.0000
    Dipole Moment (Debye)
         X       0.0175      Y       0.0780      Z      -0.0291
       Tot       0.0851
    Quadrupole Moments (Debye-Ang)
        XX     -22.1379     XY       0.1088     YY     -21.8354
        XZ       0.2174     YZ       0.0984     ZZ     -21.4073

 Total job time:  46.78s(wall), 130.42s(cpu)
        *  Thank you very much for using Q-Chem.  Have a nice day.  *
