 Q-Chem 5.2 (devel), Q-Chem, Inc., Pleasanton, CA (2019)
 Q-Chem 5.2.2 for Intel X86 EM64T Linux

User input:
--------------------------------------------------------------
$rem
   JOBTYPE  sp
   EXCHANGE   omegaB97X-D
   BASIS   6-311+G(2df,2pd)
   max_scf_cycles   250
   geom_opt_max_cycles   1500
   basis2 6-31G*
   scf_algorithm rca_diis
   SYM_IGNORE  TRUE
   print_input   true
   geom_opt_dmax   80
   pop_mulliken false
   XC_GRID 000075000302
$end

$molecule
0 1
C       1.2405341088     -0.1469592667     0.3401232379
C       -0.0858952354     -0.4969739024     -0.3238021388
H       1.5142176948     0.8910749806     0.1404850784
H       2.0456451617     -0.7784075340     -0.0411095714
H       1.1958546307     -0.2788278519     1.4217102686
C       -1.1801524691     0.5166236478     -0.0108265430
H       -0.4052457171     -1.4899808755     0.0013414711
H       0.0536250212     -0.5601601130     -1.4056096765
H       -1.3593945330     0.5769078327     1.0645444475
H       -2.1222311296     0.2527490086     -0.4924706540
H       -0.8969575936     1.5139547397     -0.3533409009
--------------------------------------------------------------

             Standard Nuclear Orientation (Angstroms)
    I     Atom           X                Y                Z
 ----------------------------------------------------------------
    1      C       1.2405341088    -0.1469592667     0.3401232379
    2      C      -0.0858952354    -0.4969739024    -0.3238021388
    3      H       1.5142176948     0.8910749806     0.1404850784
    4      H       2.0456451617    -0.7784075340    -0.0411095714
    5      H       1.1958546307    -0.2788278519     1.4217102686
    6      C      -1.1801524691     0.5166236478    -0.0108265430
    7      H      -0.4052457171    -1.4899808755     0.0013414711
    8      H       0.0536250212    -0.5601601130    -1.4056096765
    9      H      -1.3593945330     0.5769078327     1.0645444475
   10      H      -2.1222311296     0.2527490086    -0.4924706540
   11      H      -0.8969575936     1.5139547397    -0.3533409009
 ----------------------------------------------------------------

    7    -119.1027063051      4.48E-06 Convergence criterion met
    6    -119.1456146819      3.85E-06 Convergence criterion met
 Total energy in the final basis set = -119.14561468

                    Orbital Energies (a.u.)
 --------------------------------------------------------------

 Alpha MOs
 -- Occupied --
-10.2739 -10.2650 -10.2650  -0.8811  -0.7771  -0.6776  -0.5458  -0.5238
 -0.4827  -0.4643  -0.4182  -0.4174  -0.4074

                    Cartesian Multipole Moments
 -----------------------------------------------------------------
    Charge (ESU x 10^10)
                -0.0000
    Dipole Moment (Debye)
         X      -0.0094      Y      -0.0719      Z      -0.0499
       Tot       0.0880
    Quadrupole Moments (Debye-Ang)
        XX     -22.1283     XY       0.1627     YY     -21.7273
        XZ      -0.1498     YZ      -0.1943     ZZ     -21.5159

 Total job time:  40.17s(wall), 111.19s(cpu)
        *  Thank you very much for using Q-Chem.  Have a nice day.  *
