 Q-Chem 5.2 (devel), Q-Chem, Inc., Pleasanton, CA (2019)
 Q-Chem 5.2.2 for Intel X86 EM64T Linux

User input:
--------------------------------------------------------------
$rem
   JOBTYPE  sp
   EXCHANGE   omegaB97X-D
   BASIS   6-311+G(2df,2pd)
   max_scf_cycles   250
   geom_opt_max_cycles   1500
   basis2 6-31G*
   scf_algorithm rca_diis
   SYM_IGNORE  TRUE
   print_input   true
   geom_opt_dmax   80
   pop_mulliken false
   XC_GRID 000075000302
$end

$molecule
0 1
C       1.1526190135     -0.5617252120     -0.0939614019
C       0.1117097514     0.5412983729     -0.2442326895
H       0.8212404839     -1.4795302246     -0.5838680058
H       1.3243303841     -0.7945932948     0.9588794755
H       2.1086350953     -0.2748173811     -0.5330973028
C       -1.2332095813     0.1607475770     0.3632993970
H       -0.0201590568     0.7760261752     -1.3031382369
H       0.4790511426     1.4556811413     0.2277121556
H       -2.0447156846     0.3361277834     -0.3459152971
H       -1.4454420609     0.7382532439     1.2636748461
H       -1.2540595478     -0.8974675153     0.6316920788
--------------------------------------------------------------

             Standard Nuclear Orientation (Angstroms)
    I     Atom           X                Y                Z
 ----------------------------------------------------------------
    1      C       1.1526190135    -0.5617252120    -0.0939614019
    2      C       0.1117097514     0.5412983729    -0.2442326895
    3      H       0.8212404839    -1.4795302246    -0.5838680058
    4      H       1.3243303841    -0.7945932948     0.9588794755
    5      H       2.1086350953    -0.2748173811    -0.5330973028
    6      C      -1.2332095813     0.1607475770     0.3632993970
    7      H      -0.0201590568     0.7760261752    -1.3031382369
    8      H       0.4790511426     1.4556811413     0.2277121556
    9      H      -2.0447156846     0.3361277834    -0.3459152971
   10      H      -1.4454420609     0.7382532439     1.2636748461
   11      H      -1.2540595478    -0.8974675153     0.6316920788
 ----------------------------------------------------------------

    7    -119.0981382585      4.40E-06 Convergence criterion met
    6    -119.1412278518      3.94E-06 Convergence criterion met
 Total energy in the final basis set = -119.14122785

                    Orbital Energies (a.u.)
 --------------------------------------------------------------

 Alpha MOs
 -- Occupied --
-10.2727 -10.2653 -10.2636  -0.8811  -0.7768  -0.6776  -0.5448  -0.5254
 -0.4799  -0.4679  -0.4189  -0.4160  -0.4026

                    Cartesian Multipole Moments
 -----------------------------------------------------------------
    Charge (ESU x 10^10)
                -0.0000
    Dipole Moment (Debye)
         X       0.0115      Y       0.0742      Z      -0.0365
       Tot       0.0835
    Quadrupole Moments (Debye-Ang)
        XX     -22.1900     XY       0.1323     YY     -21.7721
        XZ       0.2385     YZ       0.1821     ZZ     -21.4363

 Total job time:  39.36s(wall), 109.86s(cpu)
        *  Thank you very much for using Q-Chem.  Have a nice day.  *
