 Q-Chem 5.2 (devel), Q-Chem, Inc., Pleasanton, CA (2019)
 Q-Chem 5.2.2 for Intel X86 EM64T Linux

User input:
--------------------------------------------------------------
$rem
   JOBTYPE  sp
   EXCHANGE   omegaB97X-D
   BASIS   6-311+G(2df,2pd)
   max_scf_cycles   250
   geom_opt_max_cycles   1500
   basis2 6-31G*
   scf_algorithm rca_diis
   SYM_IGNORE  TRUE
   print_input   true
   geom_opt_dmax   80
   pop_mulliken false
   XC_GRID 000075000302
$end

$molecule
0 1
C       1.2670623120     -0.0247397123     0.2590308934
C       0.0001529808     0.0235031690     -0.5867433913
H       1.2940574150     -0.9299102724     0.8690414436
H       1.3159026235     0.8299827448     0.9367030082
H       2.1645499860     -0.0120718893     -0.3602249404
C       -1.2671511093     0.0066932377     0.2596480780
H       -0.0105325111     -0.8244640196     -1.2756513507
H       0.0111441745     0.9218573522     -1.2085115672
H       -1.2344348027     -0.8005146728     0.9941686879
H       -2.1579812233     -0.1348536788     -0.3531396413
H       -1.3827699060     0.9445184074     0.8067237987
--------------------------------------------------------------

             Standard Nuclear Orientation (Angstroms)
    I     Atom           X                Y                Z
 ----------------------------------------------------------------
    1      C       1.2670623120    -0.0247397123     0.2590308934
    2      C       0.0001529808     0.0235031690    -0.5867433913
    3      H       1.2940574150    -0.9299102724     0.8690414436
    4      H       1.3159026235     0.8299827448     0.9367030082
    5      H       2.1645499860    -0.0120718893    -0.3602249404
    6      C      -1.2671511093     0.0066932377     0.2596480780
    7      H      -0.0105325111    -0.8244640196    -1.2756513507
    8      H       0.0111441745     0.9218573522    -1.2085115672
    9      H      -1.2344348027    -0.8005146728     0.9941686879
   10      H      -2.1579812233    -0.1348536788    -0.3531396413
   11      H      -1.3827699060     0.9445184074     0.8067237987
 ----------------------------------------------------------------

    7    -119.1027809923      4.50E-06 Convergence criterion met
    6    -119.1457063906      3.88E-06 Convergence criterion met
 Total energy in the final basis set = -119.14570639

                    Orbital Energies (a.u.)
 --------------------------------------------------------------

 Alpha MOs
 -- Occupied --
-10.2739 -10.2651 -10.2650  -0.8811  -0.7771  -0.6777  -0.5457  -0.5243
 -0.4824  -0.4639  -0.4185  -0.4179  -0.4071

                    Cartesian Multipole Moments
 -----------------------------------------------------------------
    Charge (ESU x 10^10)
                -0.0000
    Dipole Moment (Debye)
         X       0.0001      Y       0.0053      Z      -0.0856
       Tot       0.0858
    Quadrupole Moments (Debye-Ang)
        XX     -22.1722     XY       0.0189     YY     -21.3570
        XZ       0.0047     YZ       0.0157     ZZ     -21.8430

 Total job time:  40.37s(wall), 112.07s(cpu)
        *  Thank you very much for using Q-Chem.  Have a nice day.  *
