 Q-Chem 5.2 (devel), Q-Chem, Inc., Pleasanton, CA (2019)
 Q-Chem 5.2.2 for Intel X86 EM64T Linux

User input:
--------------------------------------------------------------
$rem
   JOBTYPE  sp
   EXCHANGE   omegaB97X-D
   BASIS   6-311+G(2df,2pd)
   max_scf_cycles   250
   geom_opt_max_cycles   1500
   basis2 6-31G*
   scf_algorithm rca_diis
   SYM_IGNORE  TRUE
   print_input   true
   geom_opt_dmax   80
   pop_mulliken false
   XC_GRID 000075000302
$end

$molecule
0 1
C       1.2351352395     -0.3482805193     0.1569934644
C       0.0330723030     0.3328554840     -0.4862997123
H       1.0843575441     -1.4279315347     0.2186422826
H       1.3943270409     0.0199566569     1.1724934198
H       2.1492671581     -0.1702694271     -0.4102786740
C       -1.2562945258     0.0966912154     0.2911840997
H       -0.0869064103     -0.0302558848     -1.5097826602
H       0.2206726563     1.4064667375     -0.5632872680
H       -1.4090800243     0.8777044487     1.0387825703
H       -1.2437819283     -0.8632815384     0.8083638123
H       -2.1207691137     0.1063450278     -0.3757663158
--------------------------------------------------------------

             Standard Nuclear Orientation (Angstroms)
    I     Atom           X                Y                Z
 ----------------------------------------------------------------
    1      C       1.2351352395    -0.3482805193     0.1569934644
    2      C       0.0330723030     0.3328554840    -0.4862997123
    3      H       1.0843575441    -1.4279315347     0.2186422826
    4      H       1.3943270409     0.0199566569     1.1724934198
    5      H       2.1492671581    -0.1702694271    -0.4102786740
    6      C      -1.2562945258     0.0966912154     0.2911840997
    7      H      -0.0869064103    -0.0302558848    -1.5097826602
    8      H       0.2206726563     1.4064667375    -0.5632872680
    9      H      -1.4090800243     0.8777044487     1.0387825703
   10      H      -1.2437819283    -0.8632815384     0.8083638123
   11      H      -2.1207691137     0.1063450278    -0.3757663158
 ----------------------------------------------------------------

    7    -119.1004153900      4.45E-06 Convergence criterion met
    6    -119.1434219131      3.88E-06 Convergence criterion met
 Total energy in the final basis set = -119.14342191

                    Orbital Energies (a.u.)
 --------------------------------------------------------------

 Alpha MOs
 -- Occupied --
-10.2733 -10.2651 -10.2643  -0.8810  -0.7770  -0.6776  -0.5452  -0.5245
 -0.4818  -0.4657  -0.4190  -0.4166  -0.4045

                    Cartesian Multipole Moments
 -----------------------------------------------------------------
    Charge (ESU x 10^10)
                -0.0000
    Dipole Moment (Debye)
         X       0.0013      Y       0.0511      Z      -0.0711
       Tot       0.0875
    Quadrupole Moments (Debye-Ang)
        XX     -22.2005     XY       0.1451     YY     -21.4780
        XZ       0.0966     YZ       0.2132     ZZ     -21.7051

 Total job time:  40.24s(wall), 111.77s(cpu)
        *  Thank you very much for using Q-Chem.  Have a nice day.  *
