 Q-Chem 5.2 (devel), Q-Chem, Inc., Pleasanton, CA (2019)
 Q-Chem 5.2.2 for Intel X86 EM64T Linux

User input:
--------------------------------------------------------------
$rem
   JOBTYPE  sp
   EXCHANGE   omegaB97X-D
   BASIS   6-311+G(2df,2pd)
   max_scf_cycles   250
   geom_opt_max_cycles   1500
   basis2 6-31G*
   scf_algorithm rca_diis
   SYM_IGNORE  TRUE
   print_input   true
   geom_opt_dmax   80
   pop_mulliken false
   XC_GRID 000075000302
$end

$molecule
0 1
C       1.1081344681     -0.6019679896     -0.2292495583
C       0.1535480866     0.5806370141     -0.1154612044
H       0.7138853803     -1.3565409293     -0.9128985408
H       1.2524720160     -1.0809614864     0.7412763285
H       2.0867935610     -0.2944842264     -0.5991191045
C       -1.2214165166     0.1728023464     0.4001604438
H       0.0491345698     1.0598516988     -1.0917915278
H       0.5835677682     1.3333059932     0.5496269700
H       -1.7578131173     -0.4175601763     -0.3455347515
H       -1.8340025468     1.0419215135     0.6422881941
H       -1.1343037300     -0.4370030920     1.3017477698
--------------------------------------------------------------

             Standard Nuclear Orientation (Angstroms)
    I     Atom           X                Y                Z
 ----------------------------------------------------------------
    1      C       1.1081344681    -0.6019679896    -0.2292495583
    2      C       0.1535480866     0.5806370141    -0.1154612044
    3      H       0.7138853803    -1.3565409293    -0.9128985408
    4      H       1.2524720160    -1.0809614864     0.7412763285
    5      H       2.0867935610    -0.2944842264    -0.5991191045
    6      C      -1.2214165166     0.1728023464     0.4001604438
    7      H       0.0491345698     1.0598516988    -1.0917915278
    8      H       0.5835677682     1.3333059932     0.5496269700
    9      H      -1.7578131173    -0.4175601763    -0.3455347515
   10      H      -1.8340025468     1.0419215135     0.6422881941
   11      H      -1.1343037300    -0.4370030920     1.3017477698
 ----------------------------------------------------------------

    7    -119.1027447663      4.48E-06 Convergence criterion met
    6    -119.1456608706      3.87E-06 Convergence criterion met
 Total energy in the final basis set = -119.14566087

                    Orbital Energies (a.u.)
 --------------------------------------------------------------

 Alpha MOs
 -- Occupied --
-10.2739 -10.2651 -10.2650  -0.8811  -0.7771  -0.6777  -0.5457  -0.5243
 -0.4824  -0.4639  -0.4185  -0.4178  -0.4071

                    Cartesian Multipole Moments
 -----------------------------------------------------------------
    Charge (ESU x 10^10)
                -0.0000
    Dipole Moment (Debye)
         X       0.0209      Y       0.0803      Z      -0.0223
       Tot       0.0859
    Quadrupole Moments (Debye-Ang)
        XX     -22.0835     XY       0.1122     YY     -21.8549
        XZ       0.2093     YZ       0.0491     ZZ     -21.4301

 Total job time:  46.77s(wall), 130.25s(cpu)
        *  Thank you very much for using Q-Chem.  Have a nice day.  *
