 Q-Chem 5.2 (devel), Q-Chem, Inc., Pleasanton, CA (2019)
 Q-Chem 5.2.2 for Intel X86 EM64T Linux

User input:
--------------------------------------------------------------
$rem
   JOBTYPE  sp
   EXCHANGE   omegaB97X-D
   BASIS   6-311+G(2df,2pd)
   max_scf_cycles   250
   geom_opt_max_cycles   1500
   basis2 6-31G*
   scf_algorithm rca_diis
   SYM_IGNORE  TRUE
   print_input   true
   geom_opt_dmax   80
   pop_mulliken false
   XC_GRID 000075000302
$end

$molecule
0 1
C       1.1454080978     -0.5707704214     -0.1157770383
C       0.1184645575     0.5501821247     -0.2234219593
H       0.8026899989     -1.4648683727     -0.6404862911
H       1.3138647123     -0.8460071404     0.9273211160
H       2.1050817253     -0.2792403502     -0.5437489612
C       -1.2313076573     0.1635030364     0.3692975840
H       -0.0101274581     0.8270098382     -1.2725160342
H       0.4971052076     1.4410986585     0.2832010319
H       -2.0167264745     0.2088385652     -0.3879025235
H       -1.5162751615     0.8267388629     1.1867002224
H       -1.2081776086     -0.8564841352     0.7583778723
--------------------------------------------------------------

             Standard Nuclear Orientation (Angstroms)
    I     Atom           X                Y                Z
 ----------------------------------------------------------------
    1      C       1.1454080978    -0.5707704214    -0.1157770383
    2      C       0.1184645575     0.5501821247    -0.2234219593
    3      H       0.8026899989    -1.4648683727    -0.6404862911
    4      H       1.3138647123    -0.8460071404     0.9273211160
    5      H       2.1050817253    -0.2792403502    -0.5437489612
    6      C      -1.2313076573     0.1635030364     0.3692975840
    7      H      -0.0101274581     0.8270098382    -1.2725160342
    8      H       0.4971052076     1.4410986585     0.2832010319
    9      H      -2.0167264745     0.2088385652    -0.3879025235
   10      H      -1.5162751615     0.8267388629     1.1867002224
   11      H      -1.2081776086    -0.8564841352     0.7583778723
 ----------------------------------------------------------------

    7    -119.0977681619      4.39E-06 Convergence criterion met
    6    -119.1408643456      3.95E-06 Convergence criterion met
 Total energy in the final basis set = -119.14086435

                    Orbital Energies (a.u.)
 --------------------------------------------------------------

 Alpha MOs
 -- Occupied --
-10.2726 -10.2653 -10.2635  -0.8811  -0.7767  -0.6776  -0.5447  -0.5256
 -0.4796  -0.4683  -0.4190  -0.4160  -0.4023

                    Cartesian Multipole Moments
 -----------------------------------------------------------------
    Charge (ESU x 10^10)
                -0.0000
    Dipole Moment (Debye)
         X       0.0119      Y       0.0742      Z      -0.0342
       Tot       0.0826
    Quadrupole Moments (Debye-Ang)
        XX     -22.1967     XY       0.1215     YY     -21.7870
        XZ       0.2436     YZ       0.1677     ZZ     -21.4172

 Total job time:  38.63s(wall), 107.67s(cpu)
        *  Thank you very much for using Q-Chem.  Have a nice day.  *
