 Q-Chem 5.2 (devel), Q-Chem, Inc., Pleasanton, CA (2019)
 Q-Chem 5.2.2 for Intel X86 EM64T Linux

User input:
--------------------------------------------------------------
$rem
   JOBTYPE  sp
   EXCHANGE   omegaB97X-D
   BASIS   6-311+G(2df,2pd)
   max_scf_cycles   250
   geom_opt_max_cycles   1500
   basis2 6-31G*
   scf_algorithm rca_diis
   SYM_IGNORE  TRUE
   print_input   true
   geom_opt_dmax   80
   pop_mulliken false
   XC_GRID 000075000302
$end

$molecule
0 1
C       1.2211537287     -0.4062094107     0.1137563460
C       0.0468124314     0.3890286112     -0.4441398399
H       1.0297678606     -1.4793592492     0.0512836011
H       1.3920908093     -0.1633629362     1.1644647151
H       2.1424408881     -0.1986586566     -0.4314734517
C       -1.2520415414     0.1136920618     0.3041179699
H       -0.0847310109     0.1507143501     -1.5022825003
H       0.2747977778     1.4565621972     -0.3976858241
H       -1.6504451498     1.0304711192     0.7434709794
H       -1.1070506866     -0.6073275346     1.1092879336
H       -2.0127951678     -0.2855498862     -0.3697549102
--------------------------------------------------------------

             Standard Nuclear Orientation (Angstroms)
    I     Atom           X                Y                Z
 ----------------------------------------------------------------
    1      C       1.2211537287    -0.4062094107     0.1137563460
    2      C       0.0468124314     0.3890286112    -0.4441398399
    3      H       1.0297678606    -1.4793592492     0.0512836011
    4      H       1.3920908093    -0.1633629362     1.1644647151
    5      H       2.1424408881    -0.1986586566    -0.4314734517
    6      C      -1.2520415414     0.1136920618     0.3041179699
    7      H      -0.0847310109     0.1507143501    -1.5022825003
    8      H       0.2747977778     1.4565621972    -0.3976858241
    9      H      -1.6504451498     1.0304711192     0.7434709794
   10      H      -1.1070506866    -0.6073275346     1.1092879336
   11      H      -2.0127951678    -0.2855498862    -0.3697549102
 ----------------------------------------------------------------

    7    -119.0977479908      4.39E-06 Convergence criterion met
    6    -119.1408467776      3.93E-06 Convergence criterion met
 Total energy in the final basis set = -119.14084678

                    Orbital Energies (a.u.)
 --------------------------------------------------------------

 Alpha MOs
 -- Occupied --
-10.2726 -10.2652 -10.2635  -0.8810  -0.7768  -0.6775  -0.5446  -0.5254
 -0.4803  -0.4679  -0.4195  -0.4156  -0.4019

                    Cartesian Multipole Moments
 -----------------------------------------------------------------
    Charge (ESU x 10^10)
                -0.0000
    Dipole Moment (Debye)
         X       0.0004      Y       0.0545      Z      -0.0644
       Tot       0.0844
    Quadrupole Moments (Debye-Ang)
        XX     -22.2453     XY       0.1379     YY     -21.5294
        XZ       0.1500     YZ       0.2479     ZZ     -21.6269

 Total job time:  40.67s(wall), 112.77s(cpu)
        *  Thank you very much for using Q-Chem.  Have a nice day.  *
