 Q-Chem 5.2 (devel), Q-Chem, Inc., Pleasanton, CA (2019)
 Q-Chem 5.2.2 for Intel X86 EM64T Linux

User input:
--------------------------------------------------------------
$rem
   JOBTYPE  sp
   EXCHANGE   omegaB97X-D
   BASIS   6-311+G(2df,2pd)
   max_scf_cycles   250
   geom_opt_max_cycles   1500
   basis2 6-31G*
   scf_algorithm rca_diis
   SYM_IGNORE  TRUE
   print_input   true
   geom_opt_dmax   80
   pop_mulliken false
   XC_GRID 000075000302
$end

$molecule
0 1
C       1.2392589360     -0.3277678154     0.1698731067
C       0.0289569655     0.3130399799     -0.4989031535
H       1.1020089287     -1.4060614846     0.2729537326
H       1.3934967754     0.0811538944     1.1704600058
H       2.1512687028     -0.1602184699     -0.4039632516
C       -1.2575963789     0.0907502777     0.2872833319
H       -0.0861325787     -0.0905748704     -1.5076703059
H       0.2031073616     1.3851716620     -0.6170852674
H       -1.3324596489     0.7942536782     1.1189702675
H       -1.3088475071     -0.9183895926     0.6973874135
H       -2.1330616171     0.2386434067     -0.3482608609
--------------------------------------------------------------

             Standard Nuclear Orientation (Angstroms)
    I     Atom           X                Y                Z
 ----------------------------------------------------------------
    1      C       1.2392589360    -0.3277678154     0.1698731067
    2      C       0.0289569655     0.3130399799    -0.4989031535
    3      H       1.1020089287    -1.4060614846     0.2729537326
    4      H       1.3934967754     0.0811538944     1.1704600058
    5      H       2.1512687028    -0.1602184699    -0.4039632516
    6      C      -1.2575963789     0.0907502777     0.2872833319
    7      H      -0.0861325787    -0.0905748704    -1.5076703059
    8      H       0.2031073616     1.3851716620    -0.6170852674
    9      H      -1.3324596489     0.7942536782     1.1189702675
   10      H      -1.3088475071    -0.9183895926     0.6973874135
   11      H      -2.1330616171     0.2386434067    -0.3482608609
 ----------------------------------------------------------------

    7    -119.1017371980      4.47E-06 Convergence criterion met
    6    -119.1446895867      3.86E-06 Convergence criterion met
 Total energy in the final basis set = -119.14468959

                    Orbital Energies (a.u.)
 --------------------------------------------------------------

 Alpha MOs
 -- Occupied --
-10.2737 -10.2650 -10.2647  -0.8811  -0.7771  -0.6776  -0.5455  -0.5241
 -0.4824  -0.4648  -0.4187  -0.4171  -0.4060

                    Cartesian Multipole Moments
 -----------------------------------------------------------------
    Charge (ESU x 10^10)
                 0.0000
    Dipole Moment (Debye)
         X       0.0013      Y       0.0486      Z      -0.0735
       Tot       0.0881
    Quadrupole Moments (Debye-Ang)
        XX     -22.1830     XY       0.1410     YY     -21.4720
        XZ       0.0700     YZ       0.1986     ZZ     -21.7217

 Total job time:  40.23s(wall), 112.01s(cpu)
        *  Thank you very much for using Q-Chem.  Have a nice day.  *
