 Q-Chem 5.2 (devel), Q-Chem, Inc., Pleasanton, CA (2019)
 Q-Chem 5.2.2 for Intel X86 EM64T Linux

User input:
--------------------------------------------------------------
$rem
   JOBTYPE  sp
   EXCHANGE   omegaB97X-D
   BASIS   6-311+G(2df,2pd)
   max_scf_cycles   250
   geom_opt_max_cycles   1500
   basis2 6-31G*
   scf_algorithm rca_diis
   SYM_IGNORE  TRUE
   print_input   true
   geom_opt_dmax   80
   pop_mulliken false
   XC_GRID 000075000302
$end

$molecule
0 1
C       1.2456967267     -0.1339715597     0.3238430820
C       -0.0680664670     -0.4550903523     -0.3787455589
H       1.7467551639     0.7104289930     -0.1538486529
H       1.9272668327     -0.9861051966     0.2840044787
H       1.0890289997     0.1200598615     1.3727130467
C       -1.1990224285     0.4739123356     0.0462529639
H       -0.3490878779     -1.4901918977     -0.1705232107
H       0.0713605517     -0.3882771536     -1.4603466381
H       -1.3780478431     0.4034621492     1.1210413940
H       -2.1315519056     0.2318330081     -0.4645399152
H       -0.9543318132     1.5139404784     -0.1788059705
--------------------------------------------------------------

             Standard Nuclear Orientation (Angstroms)
    I     Atom           X                Y                Z
 ----------------------------------------------------------------
    1      C       1.2456967267    -0.1339715597     0.3238430820
    2      C      -0.0680664670    -0.4550903523    -0.3787455589
    3      H       1.7467551639     0.7104289930    -0.1538486529
    4      H       1.9272668327    -0.9861051966     0.2840044787
    5      H       1.0890289997     0.1200598615     1.3727130467
    6      C      -1.1990224285     0.4739123356     0.0462529639
    7      H      -0.3490878779    -1.4901918977    -0.1705232107
    8      H       0.0713605517    -0.3882771536    -1.4603466381
    9      H      -1.3780478431     0.4034621492     1.1210413940
   10      H      -2.1315519056     0.2318330081    -0.4645399152
   11      H      -0.9543318132     1.5139404784    -0.1788059705
 ----------------------------------------------------------------

    7    -119.1017408483      4.47E-06 Convergence criterion met
    6    -119.1446950218      3.86E-06 Convergence criterion met
 Total energy in the final basis set = -119.14469502

                    Orbital Energies (a.u.)
 --------------------------------------------------------------

 Alpha MOs
 -- Occupied --
-10.2737 -10.2650 -10.2647  -0.8811  -0.7771  -0.6776  -0.5455  -0.5241
 -0.4824  -0.4648  -0.4187  -0.4171  -0.4060

                    Cartesian Multipole Moments
 -----------------------------------------------------------------
    Charge (ESU x 10^10)
                 0.0000
    Dipole Moment (Debye)
         X      -0.0052      Y      -0.0633      Z      -0.0611
       Tot       0.0881
    Quadrupole Moments (Debye-Ang)
        XX     -22.1653     XY       0.1465     YY     -21.6636
        XZ      -0.1253     YZ      -0.2210     ZZ     -21.5470

 Total job time:  40.47s(wall), 112.30s(cpu)
        *  Thank you very much for using Q-Chem.  Have a nice day.  *
