 Q-Chem 5.2 (devel), Q-Chem, Inc., Pleasanton, CA (2019)
 Q-Chem 5.2.2 for Intel X86 EM64T Linux

User input:
--------------------------------------------------------------
$rem
   JOBTYPE  sp
   EXCHANGE   omegaB97X-D
   BASIS   6-311+G(2df,2pd)
   max_scf_cycles   250
   geom_opt_max_cycles   1500
   basis2 6-31G*
   scf_algorithm rca_diis
   SYM_IGNORE  TRUE
   print_input   true
   geom_opt_dmax   80
   pop_mulliken false
   XC_GRID 000075000302
$end

$molecule
0 1
C       1.1157030717     -0.5976324051     -0.2060937862
C       0.1463909948     0.5764465393     -0.1374659486
H       0.7310169579     -1.3827610497     -0.8601410399
H       1.2658764254     -1.0371749549     0.7820552485
H       2.0904954667     -0.2923672107     -0.5878218102
C       -1.2234425906     0.1715546049     0.3938916326
H       0.0361366285     1.0164862228     -1.1314370057
H       0.5668714011     1.3594073036     0.4980952849
H       -1.8207673318     -0.3009762622     -0.3885559640
H       -1.7805914943     1.0319188140     0.7661952982
H       -1.1276895900     -0.5449009360     1.2123231093
--------------------------------------------------------------

             Standard Nuclear Orientation (Angstroms)
    I     Atom           X                Y                Z
 ----------------------------------------------------------------
    1      C       1.1157030717    -0.5976324051    -0.2060937862
    2      C       0.1463909948     0.5764465393    -0.1374659486
    3      H       0.7310169579    -1.3827610497    -0.8601410399
    4      H       1.2658764254    -1.0371749549     0.7820552485
    5      H       2.0904954667    -0.2923672107    -0.5878218102
    6      C      -1.2234425906     0.1715546049     0.3938916326
    7      H       0.0361366285     1.0164862228    -1.1314370057
    8      H       0.5668714011     1.3594073036     0.4980952849
    9      H      -1.8207673318    -0.3009762622    -0.3885559640
   10      H      -1.7805914943     1.0319188140     0.7661952982
   11      H      -1.1276895900    -0.5449009360     1.2123231093
 ----------------------------------------------------------------

    7    -119.1017707805      4.46E-06 Convergence criterion met
    6    -119.1447265662      3.89E-06 Convergence criterion met
 Total energy in the final basis set = -119.14472657

                    Orbital Energies (a.u.)
 --------------------------------------------------------------

 Alpha MOs
 -- Occupied --
-10.2737 -10.2652 -10.2647  -0.8811  -0.7770  -0.6777  -0.5455  -0.5246
 -0.4820  -0.4646  -0.4182  -0.4180  -0.4060

                    Cartesian Multipole Moments
 -----------------------------------------------------------------
    Charge (ESU x 10^10)
                -0.0000
    Dipole Moment (Debye)
         X       0.0192      Y       0.0794      Z      -0.0262
       Tot       0.0858
    Quadrupole Moments (Debye-Ang)
        XX     -22.1075     XY       0.1106     YY     -21.8469
        XZ       0.2096     YZ       0.0728     ZZ     -21.4183

 Total job time:  46.08s(wall), 128.51s(cpu)
        *  Thank you very much for using Q-Chem.  Have a nice day.  *
