 Q-Chem 5.2 (devel), Q-Chem, Inc., Pleasanton, CA (2019)
 Q-Chem 5.2.2 for Intel X86 EM64T Linux

User input:
--------------------------------------------------------------
$rem
   JOBTYPE  sp
   EXCHANGE   omegaB97X-D
   BASIS   6-311+G(2df,2pd)
   max_scf_cycles   250
   geom_opt_max_cycles   1500
   basis2 6-31G*
   scf_algorithm rca_diis
   SYM_IGNORE  TRUE
   print_input   true
   geom_opt_dmax   80
   pop_mulliken false
   XC_GRID 000075000302
$end

$molecule
0 1
C       1.2666365237     -0.0494377253     0.2576251344
C       0.0006115550     0.0469710190     -0.5853501889
H       1.2822651225     -0.9776387962     0.8324070582
H       1.3259248248     0.7779498515     0.9676183991
H       2.1643502394     -0.0241244436     -0.3609148710
C       -1.2669921039     0.0133809840     0.2600925794
H       -0.0204385611     -0.7737084569     -1.3063211913
H       0.0228843931     0.9683417398     -1.1721525503
H       -1.1719595912     -0.7055361986     1.0763684603
H       -2.1382414544     -0.2671253816     -0.3326700467
H       -1.4650410086     0.9909280740     0.7043422356
--------------------------------------------------------------

             Standard Nuclear Orientation (Angstroms)
    I     Atom           X                Y                Z
 ----------------------------------------------------------------
    1      C       1.2666365237    -0.0494377253     0.2576251344
    2      C       0.0006115550     0.0469710190    -0.5853501889
    3      H       1.2822651225    -0.9776387962     0.8324070582
    4      H       1.3259248248     0.7779498515     0.9676183991
    5      H       2.1643502394    -0.0241244436    -0.3609148710
    6      C      -1.2669921039     0.0133809840     0.2600925794
    7      H      -0.0204385611    -0.7737084569    -1.3063211913
    8      H       0.0228843931     0.9683417398    -1.1721525503
    9      H      -1.1719595912    -0.7055361986     1.0763684603
   10      H      -2.1382414544    -0.2671253816    -0.3326700467
   11      H      -1.4650410086     0.9909280740     0.7043422356
 ----------------------------------------------------------------

    7    -119.1017959970      4.48E-06 Convergence criterion met
    6    -119.1447603270      3.89E-06 Convergence criterion met
 Total energy in the final basis set = -119.14476033

                    Orbital Energies (a.u.)
 --------------------------------------------------------------

 Alpha MOs
 -- Occupied --
-10.2737 -10.2652 -10.2647  -0.8811  -0.7770  -0.6777  -0.5455  -0.5246
 -0.4820  -0.4646  -0.4183  -0.4180  -0.4060

                    Cartesian Multipole Moments
 -----------------------------------------------------------------
    Charge (ESU x 10^10)
                -0.0000
    Dipole Moment (Debye)
         X      -0.0001      Y       0.0098      Z      -0.0852
       Tot       0.0858
    Quadrupole Moments (Debye-Ang)
        XX     -22.1865     XY       0.0361     YY     -21.3432
        XZ       0.0179     YZ       0.0330     ZZ     -21.8467

 Total job time:  40.50s(wall), 112.26s(cpu)
        *  Thank you very much for using Q-Chem.  Have a nice day.  *
