 Q-Chem 5.2 (devel), Q-Chem, Inc., Pleasanton, CA (2019)
 Q-Chem 5.2.2 for Intel X86 EM64T Linux

User input:
--------------------------------------------------------------
$rem
   JOBTYPE  sp
   EXCHANGE   omegaB97X-D
   BASIS   6-311+G(2df,2pd)
   max_scf_cycles   250
   geom_opt_max_cycles   1500
   basis2 6-31G*
   scf_algorithm rca_diis
   SYM_IGNORE  TRUE
   print_input   true
   geom_opt_dmax   80
   pop_mulliken false
   XC_GRID 000075000302
$end

$molecule
0 1
C       1.2621129847     -0.0659377528     0.2739915541
C       -0.0150281341     -0.2292240056     -0.5414649866
H       2.0547660941     -0.7112550206     -0.1100371604
H       1.0947907474     -0.3367292218     1.3184458615
H       1.6262397993     0.9616615077     0.2492727810
C       -1.2529556659     0.2405961178     0.2132069105
H       -0.1360494293     -1.2779953159     -0.8228770609
H       0.0756200034     0.3291713319     -1.4762043801
H       -1.3824728925     -0.3237375848     1.1389129015
H       -2.1578651709     0.1175313576     -0.3827096112
H       -1.1691583968     1.2959192522     0.4805082094
--------------------------------------------------------------

             Standard Nuclear Orientation (Angstroms)
    I     Atom           X                Y                Z
 ----------------------------------------------------------------
    1      C       1.2621129847    -0.0659377528     0.2739915541
    2      C      -0.0150281341    -0.2292240056    -0.5414649866
    3      H       2.0547660941    -0.7112550206    -0.1100371604
    4      H       1.0947907474    -0.3367292218     1.3184458615
    5      H       1.6262397993     0.9616615077     0.2492727810
    6      C      -1.2529556659     0.2405961178     0.2132069105
    7      H      -0.1360494293    -1.2779953159    -0.8228770609
    8      H       0.0756200034     0.3291713319    -1.4762043801
    9      H      -1.3824728925    -0.3237375848     1.1389129015
   10      H      -2.1578651709     0.1175313576    -0.3827096112
   11      H      -1.1691583968     1.2959192522     0.4805082094
 ----------------------------------------------------------------

    7    -119.1017248039      4.47E-06 Convergence criterion met
    6    -119.1446726891      3.87E-06 Convergence criterion met
 Total energy in the final basis set = -119.14467269

                    Orbital Energies (a.u.)
 --------------------------------------------------------------

 Alpha MOs
 -- Occupied --
-10.2737 -10.2651 -10.2647  -0.8811  -0.7771  -0.6776  -0.5456  -0.5241
 -0.4822  -0.4650  -0.4183  -0.4172  -0.4063

                    Cartesian Multipole Moments
 -----------------------------------------------------------------
    Charge (ESU x 10^10)
                 0.0000
    Dipole Moment (Debye)
         X       0.0010      Y      -0.0317      Z      -0.0819
       Tot       0.0878
    Quadrupole Moments (Debye-Ang)
        XX     -22.1971     XY       0.0943     YY     -21.4066
        XZ      -0.0347     YZ      -0.1729     ZZ     -21.7736

 Total job time:  40.09s(wall), 111.88s(cpu)
        *  Thank you very much for using Q-Chem.  Have a nice day.  *
