 Q-Chem 5.2 (devel), Q-Chem, Inc., Pleasanton, CA (2019)
 Q-Chem 5.2.2 for Intel X86 EM64T Linux

User input:
--------------------------------------------------------------
$rem
   JOBTYPE  sp
   EXCHANGE   omegaB97X-D
   BASIS   6-311+G(2df,2pd)
   max_scf_cycles   250
   geom_opt_max_cycles   1500
   basis2 6-31G*
   scf_algorithm rca_diis
   SYM_IGNORE  TRUE
   print_input   true
   geom_opt_dmax   80
   pop_mulliken false
   XC_GRID 000075000302
$end

$molecule
0 1
C       1.2610961083     -0.0722753829     0.2769498325
C       -0.0181159644     -0.2507921701     -0.5320430523
H       2.0930252625     -0.6062596454     -0.1866989802
H       1.1406184332     -0.4658301017     1.2882920614
H       1.5419896715     0.9782691827     0.3583039377
C       -1.2499566457     0.2630862591     0.2036356705
H       -0.1522747690     -1.3080033000     -0.7730131691
H       0.0793510108     0.2701204962     -1.4875066775
H       -1.3863653108     -0.2636213680     1.1502881742
H       -2.1564284806     0.1285397877     -0.3874047146
H       -1.1529393763     1.3267669084     0.4302419363
--------------------------------------------------------------

             Standard Nuclear Orientation (Angstroms)
    I     Atom           X                Y                Z
 ----------------------------------------------------------------
    1      C       1.2610961083    -0.0722753829     0.2769498325
    2      C      -0.0181159644    -0.2507921701    -0.5320430523
    3      H       2.0930252625    -0.6062596454    -0.1866989802
    4      H       1.1406184332    -0.4658301017     1.2882920614
    5      H       1.5419896715     0.9782691827     0.3583039377
    6      C      -1.2499566457     0.2630862591     0.2036356705
    7      H      -0.1522747690    -1.3080033000    -0.7730131691
    8      H       0.0793510108     0.2701204962    -1.4875066775
    9      H      -1.3863653108    -0.2636213680     1.1502881742
   10      H      -2.1564284806     0.1285397877    -0.3874047146
   11      H      -1.1529393763     1.3267669084     0.4302419363
 ----------------------------------------------------------------

    7    -119.1026903370      4.48E-06 Convergence criterion met
    6    -119.1455965834      3.85E-06 Convergence criterion met
 Total energy in the final basis set = -119.14559658

                    Orbital Energies (a.u.)
 --------------------------------------------------------------

 Alpha MOs
 -- Occupied --
-10.2739 -10.2650 -10.2650  -0.8811  -0.7771  -0.6776  -0.5458  -0.5238
 -0.4827  -0.4643  -0.4182  -0.4174  -0.4074

                    Cartesian Multipole Moments
 -----------------------------------------------------------------
    Charge (ESU x 10^10)
                -0.0000
    Dipole Moment (Debye)
         X       0.0006      Y      -0.0359      Z      -0.0803
       Tot       0.0880
    Quadrupole Moments (Debye-Ang)
        XX     -22.1808     XY       0.1079     YY     -21.4331
        XZ      -0.0293     YZ      -0.1749     ZZ     -21.7592

 Total job time:  40.04s(wall), 111.39s(cpu)
        *  Thank you very much for using Q-Chem.  Have a nice day.  *
