 Q-Chem 5.2 (devel), Q-Chem, Inc., Pleasanton, CA (2019)
 Q-Chem 5.2.2 for Intel X86 EM64T Linux

User input:
--------------------------------------------------------------
$rem
   JOBTYPE  sp
   EXCHANGE   omegaB97X-D
   BASIS   6-311+G(2df,2pd)
   max_scf_cycles   250
   geom_opt_max_cycles   1500
   basis2 6-31G*
   scf_algorithm rca_diis
   SYM_IGNORE  TRUE
   print_input   true
   geom_opt_dmax   80
   pop_mulliken false
   XC_GRID 000075000302
$end

$molecule
0 1
C       1.2588335047     -0.0846927172     0.2836043787
C       -0.0250874410     -0.2927346983     -0.5107424584
H       2.1325510853     -0.3676704185     -0.3069589915
H       1.2609981950     -0.6966286029     1.1879000306
H       1.3813883208     0.9563748129     0.5841540473
C       -1.2431059514     0.3067080820     0.1819522329
H       -0.1858325978     -1.3616357502     -0.6700310650
H       0.0846125660     0.1507246626     -1.5032499041
H       -1.3918873952     -0.1422301985     1.1660754427
H       -2.1531299574     0.1499018854     -0.3980398877
H       -1.1193403896     1.3818836088     0.3263811935
--------------------------------------------------------------

             Standard Nuclear Orientation (Angstroms)
    I     Atom           X                Y                Z
 ----------------------------------------------------------------
    1      C       1.2588335047    -0.0846927172     0.2836043787
    2      C      -0.0250874410    -0.2927346983    -0.5107424584
    3      H       2.1325510853    -0.3676704185    -0.3069589915
    4      H       1.2609981950    -0.6966286029     1.1879000306
    5      H       1.3813883208     0.9563748129     0.5841540473
    6      C      -1.2431059514     0.3067080820     0.1819522329
    7      H      -0.1858325978    -1.3616357502    -0.6700310650
    8      H       0.0846125660     0.1507246626    -1.5032499041
    9      H      -1.3918873952    -0.1422301985     1.1660754427
   10      H      -2.1531299574     0.1499018854    -0.3980398877
   11      H      -1.1193403896     1.3818836088     0.3263811935
 ----------------------------------------------------------------

    7    -119.1027078549      4.48E-06 Convergence criterion met
    6    -119.1456204727      3.85E-06 Convergence criterion met
 Total energy in the final basis set = -119.14562047

                    Orbital Energies (a.u.)
 --------------------------------------------------------------

 Alpha MOs
 -- Occupied --
-10.2739 -10.2650 -10.2650  -0.8811  -0.7771  -0.6776  -0.5457  -0.5238
 -0.4828  -0.4642  -0.4183  -0.4175  -0.4072

                    Cartesian Multipole Moments
 -----------------------------------------------------------------
    Charge (ESU x 10^10)
                -0.0000
    Dipole Moment (Debye)
         X      -0.0006      Y      -0.0451      Z      -0.0758
       Tot       0.0882
    Quadrupole Moments (Debye-Ang)
        XX     -22.1729     XY       0.1326     YY     -21.4652
        XZ      -0.0478     YZ      -0.1867     ZZ     -21.7346

 Total job time:  38.75s(wall), 107.86s(cpu)
        *  Thank you very much for using Q-Chem.  Have a nice day.  *
