 Q-Chem 5.2 (devel), Q-Chem, Inc., Pleasanton, CA (2019)
 Q-Chem 5.2.2 for Intel X86 EM64T Linux

User input:
--------------------------------------------------------------
$rem
   JOBTYPE  sp
   EXCHANGE   omegaB97X-D
   BASIS   6-311+G(2df,2pd)
   max_scf_cycles   250
   geom_opt_max_cycles   1500
   basis2 6-31G*
   scf_algorithm rca_diis
   SYM_IGNORE  TRUE
   print_input   true
   geom_opt_dmax   80
   pop_mulliken false
   XC_GRID 000075000302
$end

$molecule
0 1
C       1.2580946997     -0.1944439932     0.2297354562
C       0.0096802184     0.1850681979     -0.5577643856
H       1.2003242207     -1.2279013245     0.5773078939
H       1.3724856664     0.4423189353     1.1092954390
H       2.1603153824     -0.0949531580     -0.3746005468
C       -1.2638968055     0.0530562273     0.2688525216
H       -0.0659917906     -0.4454999744     -1.4468183424
H       0.1048419492     1.2118401684     -0.9189332881
H       -1.0378345411     0.0626723244     1.3370311308
H       -1.7925535816     -0.8746409953     0.0473767806
H       -1.9454654785     0.8824842581     0.0695623596
--------------------------------------------------------------

             Standard Nuclear Orientation (Angstroms)
    I     Atom           X                Y                Z
 ----------------------------------------------------------------
    1      C       1.2580946997    -0.1944439932     0.2297354562
    2      C       0.0096802184     0.1850681979    -0.5577643856
    3      H       1.2003242207    -1.2279013245     0.5773078939
    4      H       1.3724856664     0.4423189353     1.1092954390
    5      H       2.1603153824    -0.0949531580    -0.3746005468
    6      C      -1.2638968055     0.0530562273     0.2688525216
    7      H      -0.0659917906    -0.4454999744    -1.4468183424
    8      H       0.1048419492     1.2118401684    -0.9189332881
    9      H      -1.0378345411     0.0626723244     1.3370311308
   10      H      -1.7925535816    -0.8746409953     0.0473767806
   11      H      -1.9454654785     0.8824842581     0.0695623596
 ----------------------------------------------------------------

    7    -119.0991099269      4.43E-06 Convergence criterion met
    6    -119.1421675962      3.92E-06 Convergence criterion met
 Total energy in the final basis set = -119.14216760

                    Orbital Energies (a.u.)
 --------------------------------------------------------------

 Alpha MOs
 -- Occupied --
-10.2730 -10.2652 -10.2639  -0.8811  -0.7768  -0.6776  -0.5450  -0.5251
 -0.4806  -0.4670  -0.4188  -0.4163  -0.4036

                    Cartesian Multipole Moments
 -----------------------------------------------------------------
    Charge (ESU x 10^10)
                 0.0000
    Dipole Moment (Debye)
         X      -0.0021      Y       0.0251      Z      -0.0813
       Tot       0.0852
    Quadrupole Moments (Debye-Ang)
        XX     -22.2420     XY       0.0744     YY     -21.3468
        XZ       0.0601     YZ       0.1605     ZZ     -21.8048

 Total job time:  40.47s(wall), 112.48s(cpu)
        *  Thank you very much for using Q-Chem.  Have a nice day.  *
