 Q-Chem 5.2 (devel), Q-Chem, Inc., Pleasanton, CA (2019)
 Q-Chem 5.2.2 for Intel X86 EM64T Linux

User input:
--------------------------------------------------------------
$rem
   JOBTYPE  sp
   EXCHANGE   omegaB97X-D
   BASIS   6-311+G(2df,2pd)
   max_scf_cycles   250
   geom_opt_max_cycles   1500
   basis2 6-31G*
   scf_algorithm rca_diis
   SYM_IGNORE  TRUE
   print_input   true
   geom_opt_dmax   80
   pop_mulliken false
   XC_GRID 000075000302
$end

$molecule
0 1
C       1.2649318201     -0.0985433368     0.2520127698
C       0.0024409774     0.0936603932     -0.5797906013
H       1.2570178827     -1.0682299603     0.7538312074
H       1.3440917610     0.6701751362     1.0233636208
H       2.1635491376     -0.0480947037     -0.3636692314
C       -1.2663602263     0.0267174919     0.2618643501
H       -0.0383163592     -0.6684774800     -1.3616106380
H       0.0480859769     1.0565216803     -1.0941567589
H       -1.0778574747     -0.4783374468     1.2113765058
H       -2.0617194223     -0.5139046982     -0.2522042465
H       -1.6358641338     1.0285135902     0.4900280412
--------------------------------------------------------------

             Standard Nuclear Orientation (Angstroms)
    I     Atom           X                Y                Z
 ----------------------------------------------------------------
    1      C       1.2649318201    -0.0985433368     0.2520127698
    2      C       0.0024409774     0.0936603932    -0.5797906013
    3      H       1.2570178827    -1.0682299603     0.7538312074
    4      H       1.3440917610     0.6701751362     1.0233636208
    5      H       2.1635491376    -0.0480947037    -0.3636692314
    6      C      -1.2663602263     0.0267174919     0.2618643501
    7      H      -0.0383163592    -0.6684774800    -1.3616106380
    8      H       0.0480859769     1.0565216803    -1.0941567589
    9      H      -1.0778574747    -0.4783374468     1.2113765058
   10      H      -2.0617194223    -0.5139046982    -0.2522042465
   11      H      -1.6358641338     1.0285135902     0.4900280412
 ----------------------------------------------------------------

    7    -119.0991091393      4.42E-06 Convergence criterion met
    6    -119.1421663473      3.93E-06 Convergence criterion met
 Total energy in the final basis set = -119.14216635

                    Orbital Energies (a.u.)
 --------------------------------------------------------------

 Alpha MOs
 -- Occupied --
-10.2730 -10.2653 -10.2639  -0.8811  -0.7768  -0.6776  -0.5450  -0.5253
 -0.4805  -0.4669  -0.4188  -0.4167  -0.4034

                    Cartesian Multipole Moments
 -----------------------------------------------------------------
    Charge (ESU x 10^10)
                 0.0000
    Dipole Moment (Debye)
         X      -0.0013      Y       0.0156      Z      -0.0825
       Tot       0.0840
    Quadrupole Moments (Debye-Ang)
        XX     -22.2332     XY       0.0598     YY     -21.3109
        XZ       0.0546     YZ       0.0756     ZZ     -21.8486

 Total job time:  40.34s(wall), 112.21s(cpu)
        *  Thank you very much for using Q-Chem.  Have a nice day.  *
