 Q-Chem 5.2 (devel), Q-Chem, Inc., Pleasanton, CA (2019)
 Q-Chem 5.2.2 for Intel X86 EM64T Linux

User input:
--------------------------------------------------------------
$rem
   JOBTYPE  sp
   EXCHANGE   omegaB97X-D
   BASIS   6-311+G(2df,2pd)
   max_scf_cycles   250
   geom_opt_max_cycles   1500
   basis2 6-31G*
   scf_algorithm rca_diis
   SYM_IGNORE  TRUE
   print_input   true
   geom_opt_dmax   80
   pop_mulliken false
   XC_GRID 000075000302
$end

$molecule
0 1
C       1.1005368019     -0.6053360484     -0.2525593078
C       0.1607543446     0.5838605255     -0.0933158491
H       0.6971252490     -1.3281241340     -0.9646165312
H       1.2385560226     -1.1230004763     0.6988413546
H       2.0830833388     -0.2961281393     -0.6104924957
C       -1.2193688188     0.1737383717     0.4064664879
H       0.0626607504     1.1014700991     -1.0505139265
H       0.5999161540     1.3050119375     0.6001160013
H       -1.6924954253     -0.5256576719     -0.2858563640
H       -1.8797512849     1.0347356086     0.5152714617
H       -1.1510171931     -0.3205694065     1.3777041878
--------------------------------------------------------------

             Standard Nuclear Orientation (Angstroms)
    I     Atom           X                Y                Z
 ----------------------------------------------------------------
    1      C       1.1005368019    -0.6053360484    -0.2525593078
    2      C       0.1607543446     0.5838605255    -0.0933158491
    3      H       0.6971252490    -1.3281241340    -0.9646165312
    4      H       1.2385560226    -1.1230004763     0.6988413546
    5      H       2.0830833388    -0.2961281393    -0.6104924957
    6      C      -1.2193688188     0.1737383717     0.4064664879
    7      H       0.0626607504     1.1014700991    -1.0505139265
    8      H       0.5999161540     1.3050119375     0.6001160013
    9      H      -1.6924954253    -0.5256576719    -0.2858563640
   10      H      -1.8797512849     1.0347356086     0.5152714617
   11      H      -1.1510171931    -0.3205694065     1.3777041878
 ----------------------------------------------------------------

    7    -119.1030921718      4.48E-06 Convergence criterion met
    6    -119.1459909576      3.87E-06 Convergence criterion met
 Total energy in the final basis set = -119.14599096

                    Orbital Energies (a.u.)
 --------------------------------------------------------------

 Alpha MOs
 -- Occupied --
-10.2740 -10.2652 -10.2651  -0.8812  -0.7771  -0.6777  -0.5457  -0.5242
 -0.4826  -0.4636  -0.4186  -0.4177  -0.4075

                    Cartesian Multipole Moments
 -----------------------------------------------------------------
    Charge (ESU x 10^10)
                -0.0000
    Dipole Moment (Debye)
         X       0.0224      Y       0.0809      Z      -0.0173
       Tot       0.0857
    Quadrupole Moments (Debye-Ang)
        XX     -22.0692     XY       0.1102     YY     -21.8606
        XZ       0.2172     YZ       0.0282     ZZ     -21.4368

 Total job time:  45.92s(wall), 128.24s(cpu)
        *  Thank you very much for using Q-Chem.  Have a nice day.  *
