 Q-Chem 5.2 (devel), Q-Chem, Inc., Pleasanton, CA (2019)
 Q-Chem 5.2.2 for Intel X86 EM64T Linux

User input:
--------------------------------------------------------------
$rem
   JOBTYPE  sp
   EXCHANGE   omegaB97X-D
   BASIS   6-311+G(2df,2pd)
   max_scf_cycles   250
   geom_opt_max_cycles   1500
   basis2 6-31G*
   scf_algorithm rca_diis
   SYM_IGNORE  TRUE
   print_input   true
   geom_opt_dmax   80
   pop_mulliken false
   XC_GRID 000075000302
$end

$molecule
0 1
C       1.2653216005     -0.0399610949     0.2647951253
C       -0.0054725456     -0.1397865975     -0.5705719270
H       1.8012876862     -0.9911979104     0.2739576250
H       1.0318058626     0.2158171100     1.3002865780
H       1.9425914042     0.7216166389     -0.1230815477
C       -1.2620860129     0.1469871236     0.2426971877
H       -0.0754597552     -1.1378588286     -1.0095619549
H       0.0535308812     0.5588431054     -1.4085419543
H       -1.3596526702     -0.5580517847     1.0706936548
H       -2.1622069974     0.0717567338     -0.3682407258
H       -1.2296595141     1.1518361704     0.6686129578
--------------------------------------------------------------

             Standard Nuclear Orientation (Angstroms)
    I     Atom           X                Y                Z
 ----------------------------------------------------------------
    1      C       1.2653216005    -0.0399610949     0.2647951253
    2      C      -0.0054725456    -0.1397865975    -0.5705719270
    3      H       1.8012876862    -0.9911979104     0.2739576250
    4      H       1.0318058626     0.2158171100     1.3002865780
    5      H       1.9425914042     0.7216166389    -0.1230815477
    6      C      -1.2620860129     0.1469871236     0.2426971877
    7      H      -0.0754597552    -1.1378588286    -1.0095619549
    8      H       0.0535308812     0.5588431054    -1.4085419543
    9      H      -1.3596526702    -0.5580517847     1.0706936548
   10      H      -2.1622069974     0.0717567338    -0.3682407258
   11      H      -1.2296595141     1.1518361704     0.6686129578
 ----------------------------------------------------------------

    7    -119.0977947940      4.40E-06 Convergence criterion met
    6    -119.1408988026      3.95E-06 Convergence criterion met
 Total energy in the final basis set = -119.14089880

                    Orbital Energies (a.u.)
 --------------------------------------------------------------

 Alpha MOs
 -- Occupied --
-10.2726 -10.2653 -10.2635  -0.8811  -0.7767  -0.6776  -0.5447  -0.5256
 -0.4796  -0.4683  -0.4190  -0.4160  -0.4023

                    Cartesian Multipole Moments
 -----------------------------------------------------------------
    Charge (ESU x 10^10)
                -0.0000
    Dipole Moment (Debye)
         X       0.0030      Y      -0.0201      Z      -0.0801
       Tot       0.0827
    Quadrupole Moments (Debye-Ang)
        XX     -22.2624     XY       0.0675     YY     -21.3077
        XZ      -0.0740     YZ      -0.1243     ZZ     -21.8332

 Total job time:  40.43s(wall), 112.31s(cpu)
        *  Thank you very much for using Q-Chem.  Have a nice day.  *
