 Q-Chem 5.2 (devel), Q-Chem, Inc., Pleasanton, CA (2019)
 Q-Chem 5.2.2 for Intel X86 EM64T Linux

User input:
--------------------------------------------------------------
$rem
   JOBTYPE  sp
   EXCHANGE   omegaB97X-D
   BASIS   6-311+G(2df,2pd)
   max_scf_cycles   250
   geom_opt_max_cycles   1500
   basis2 6-31G*
   scf_algorithm rca_diis
   SYM_IGNORE  TRUE
   print_input   true
   geom_opt_dmax   80
   pop_mulliken false
   XC_GRID 000075000302
$end

$molecule
0 1
C       1.2521746422     -0.0000083067     0.2494739113
C       -0.0125456749     -0.0000000545     -0.5872733086
H       1.3001514985     -0.9528439037     0.9498942711
H       1.3001615416     0.9528618547     0.9499119726
H       2.2131436526     0.0000003435     -0.4132718076
C       -1.2821699131     0.0000082786     0.2694353314
H       -0.0160717151     -0.8738739801     -1.2430870158
H       -0.0160599497     0.8738740575     -1.2430871200
H       -1.3113748549     -0.8081942283     0.8579167644
H       -2.1160426872     0.0000012942     -0.3067656596
H       -1.3113666005     0.8081753109     0.8578976796
--------------------------------------------------------------

             Standard Nuclear Orientation (Angstroms)
    I     Atom           X                Y                Z
 ----------------------------------------------------------------
    1      C       1.2521746422    -0.0000083067     0.2494739113
    2      C      -0.0125456749    -0.0000000545    -0.5872733086
    3      H       1.3001514985    -0.9528439037     0.9498942711
    4      H       1.3001615416     0.9528618547     0.9499119726
    5      H       2.2131436526     0.0000003435    -0.4132718076
    6      C      -1.2821699131     0.0000082786     0.2694353314
    7      H      -0.0160717151    -0.8738739801    -1.2430870158
    8      H      -0.0160599497     0.8738740575    -1.2430871200
    9      H      -1.3113748549    -0.8081942283     0.8579167644
   10      H      -2.1160426872     0.0000012942    -0.3067656596
   11      H      -1.3113666005     0.8081753109     0.8578976796
 ----------------------------------------------------------------

    7    -119.0738901202      5.07E-06 Convergence criterion met
    6    -119.1178909537      4.23E-06 Convergence criterion met
 Total energy in the final basis set = -119.11789095

                    Orbital Energies (a.u.)
 --------------------------------------------------------------

 Alpha MOs
 -- Occupied --
-10.2916 -10.2746 -10.2365  -0.8839  -0.7810  -0.6752  -0.5484  -0.5269
 -0.4824  -0.4656  -0.4254  -0.4103  -0.4051

                    Cartesian Multipole Moments
 -----------------------------------------------------------------
    Charge (ESU x 10^10)
                 0.0000
    Dipole Moment (Debye)
         X      -0.1954      Y      -0.0000      Z      -0.0995
       Tot       0.2193
    Quadrupole Moments (Debye-Ang)
        XX     -22.1570     XY      -0.0000     YY     -21.3568
        XZ      -0.1963     YZ      -0.0000     ZZ     -21.8236

 Total job time:  49.44s(wall), 137.88s(cpu)
        *  Thank you very much for using Q-Chem.  Have a nice day.  *
