 Q-Chem 5.2 (devel), Q-Chem, Inc., Pleasanton, CA (2019)
 Q-Chem 5.2.2 for Intel X86 EM64T Linux

User input:
--------------------------------------------------------------
$rem
   JOBTYPE  sp
   EXCHANGE   omegaB97X-D
   BASIS   6-311+G(2df,2pd)
   max_scf_cycles   250
   geom_opt_max_cycles   1500
   basis2 6-31G*
   scf_algorithm rca_diis
   SYM_IGNORE  TRUE
   print_input   true
   geom_opt_dmax   80
   pop_mulliken false
   XC_GRID 000075000302
$end

$molecule
0 1
C       1.2703537588     -0.0127078106     0.2449686121
C       -0.0000000031     -0.0073297693     -0.6010376545
H       1.2670690197     -0.8535439143     0.9417695695
H       1.3193481171     0.8418782466     0.9255706748
H       2.1497909598     0.0359273120     -0.3954349131
C       -1.2703536920     -0.0127075486     0.2449688052
H       -0.0000001353     -0.8898631882     -1.2452016690
H       0.0000000007     0.8740859379     -1.2464632419
H       -1.2670699279     -0.8535443011     0.9417690114
H       -2.1497910121     0.0359268549     -0.3954346621
H       -1.3193471463     0.8418788468     0.9255704865
--------------------------------------------------------------

             Standard Nuclear Orientation (Angstroms)
    I     Atom           X                Y                Z
 ----------------------------------------------------------------
    1      C       1.2703537588    -0.0127078106     0.2449686121
    2      C      -0.0000000031    -0.0073297693    -0.6010376545
    3      H       1.2670690197    -0.8535439143     0.9417695695
    4      H       1.3193481171     0.8418782466     0.9255706748
    5      H       2.1497909598     0.0359273120    -0.3954349131
    6      C      -1.2703536920    -0.0127075486     0.2449688052
    7      H      -0.0000001353    -0.8898631882    -1.2452016690
    8      H       0.0000000007     0.8740859379    -1.2464632419
    9      H      -1.2670699279    -0.8535443011     0.9417690114
   10      H      -2.1497910121     0.0359268549    -0.3954346621
   11      H      -1.3193471463     0.8418788468     0.9255704865
 ----------------------------------------------------------------

    7    -119.0996642369      4.52E-06 Convergence criterion met
    5    -119.1427413365      9.92E-06 Convergence criterion met
 Total energy in the final basis set = -119.14274134

                    Orbital Energies (a.u.)
 --------------------------------------------------------------

 Alpha MOs
 -- Occupied --
-10.2749 -10.2651 -10.2651  -0.8810  -0.7770  -0.6788  -0.5435  -0.5240
 -0.4941  -0.4540  -0.4234  -0.4154  -0.4041

                    Cartesian Multipole Moments
 -----------------------------------------------------------------
    Charge (ESU x 10^10)
                -0.0000
    Dipole Moment (Debye)
         X      -0.0000      Y       0.0543      Z      -0.0388
       Tot       0.0667
    Quadrupole Moments (Debye-Ang)
        XX     -22.3239     XY       0.0000     YY     -21.6772
        XZ       0.0000     YZ      -0.1164     ZZ     -21.4780

 Total job time:  44.56s(wall), 123.40s(cpu)
        *  Thank you very much for using Q-Chem.  Have a nice day.  *
