 Q-Chem 5.2 (devel), Q-Chem, Inc., Pleasanton, CA (2019)
 Q-Chem 5.2.2 for Intel X86 EM64T Linux

User input:
--------------------------------------------------------------
$rem
   JOBTYPE  sp
   EXCHANGE   omegaB97X-D
   BASIS   6-311+G(2df,2pd)
   max_scf_cycles   250
   geom_opt_max_cycles   1500
   basis2 6-31G*
   scf_algorithm rca_diis
   SYM_IGNORE  TRUE
   print_input   true
   geom_opt_dmax   80
   pop_mulliken false
   XC_GRID 000075000302
$end

$molecule
0 1
C       1.2673406680     -0.0159859345     0.2593165960
C       0.0000786559     0.0000000286     -0.5871611763
H       1.2980539595     -0.8514305303     0.8742281665
H       1.3134987369     0.9109172226     0.9333910082
H       2.1636507250     -0.0177315200     -0.3594789329
C       -1.2668658596     0.0159830035     0.2597770763
H       -0.0061912264     -0.8738515468     -1.2429803652
H       0.0062026454     0.8738543963     -1.2429808318
H       -1.3128956221     -0.9100275106     0.9332411772
H       -2.1654025998     0.0177331480     -0.3603802797
H       -1.2974701433     0.8505399091     0.8740725805
--------------------------------------------------------------

             Standard Nuclear Orientation (Angstroms)
    I     Atom           X                Y                Z
 ----------------------------------------------------------------
    1      C       1.2673406680    -0.0159859345     0.2593165960
    2      C       0.0000786559     0.0000000286    -0.5871611763
    3      H       1.2980539595    -0.8514305303     0.8742281665
    4      H       1.3134987369     0.9109172226     0.9333910082
    5      H       2.1636507250    -0.0177315200    -0.3594789329
    6      C      -1.2668658596     0.0159830035     0.2597770763
    7      H      -0.0061912264    -0.8738515468    -1.2429803652
    8      H       0.0062026454     0.8738543963    -1.2429808318
    9      H      -1.3128956221    -0.9100275106     0.9332411772
   10      H      -2.1654025998     0.0177331480    -0.3603802797
   11      H      -1.2974701433     0.8505399091     0.8740725805
 ----------------------------------------------------------------

    7    -119.0957341988      4.70E-06 Convergence criterion met
    5    -119.1389475646      9.97E-06 Convergence criterion met
 Total energy in the final basis set = -119.13894756

                    Orbital Energies (a.u.)
 --------------------------------------------------------------

 Alpha MOs
 -- Occupied --
-10.2745 -10.2648 -10.2647  -0.8817  -0.7782  -0.6787  -0.5463  -0.5244
 -0.4830  -0.4642  -0.4189  -0.4171  -0.4070

                    Cartesian Multipole Moments
 -----------------------------------------------------------------
    Charge (ESU x 10^10)
                 0.0000
    Dipole Moment (Debye)
         X       0.0017      Y      -0.0003      Z      -0.0969
       Tot       0.0969
    Quadrupole Moments (Debye-Ang)
        XX     -22.1681     XY      -0.2047     YY     -21.3626
        XZ      -0.0024     YZ      -0.0001     ZZ     -21.8509

 Total job time:  44.84s(wall), 124.43s(cpu)
        *  Thank you very much for using Q-Chem.  Have a nice day.  *
