 Q-Chem 5.2 (devel), Q-Chem, Inc., Pleasanton, CA (2019)
 Q-Chem 5.2.2 for Intel X86 EM64T Linux

User input:
--------------------------------------------------------------
$rem
   JOBTYPE  sp
   EXCHANGE   omegaB97X-D
   BASIS   6-311+G(2df,2pd)
   max_scf_cycles   250
   geom_opt_max_cycles   1500
   basis2 6-31G*
   scf_algorithm rca_diis
   SYM_IGNORE  TRUE
   print_input   true
   geom_opt_dmax   80
   pop_mulliken false
   XC_GRID 000075000302
$end

$molecule
0 1
C       1.3183085631     0.0023216860     0.2586008497
C       -0.0000000347     0.0013006580     -0.6542049603
H       1.3015522550     -0.8756575970     0.9086339838
H       1.3062479139     0.8758062904     0.9143102144
H       2.2697785586     -0.0021624163     -0.2753196997
C       -1.3183087950     0.0023216234     0.2586005627
H       0.0000004670     -0.8757716853     -1.3055466495
H       -0.0000000753     0.8738548776     -1.3116539004
H       -1.3015521818     -0.8756573200     0.9086341329
H       -2.2697791161     -0.0021617364     -0.2753193808
H       -1.3062476152     0.8758062857     0.9143098661
--------------------------------------------------------------

             Standard Nuclear Orientation (Angstroms)
    I     Atom           X                Y                Z
 ----------------------------------------------------------------
    1      C       1.3183085631     0.0023216860     0.2586008497
    2      C      -0.0000000347     0.0013006580    -0.6542049603
    3      H       1.3015522550    -0.8756575970     0.9086339838
    4      H       1.3062479139     0.8758062904     0.9143102144
    5      H       2.2697785586    -0.0021624163    -0.2753196997
    6      C      -1.3183087950     0.0023216234     0.2586005627
    7      H       0.0000004670    -0.8757716853    -1.3055466495
    8      H      -0.0000000753     0.8738548776    -1.3116539004
    9      H      -1.3015521818    -0.8756573200     0.9086341329
   10      H      -2.2697791161    -0.0021617364    -0.2753193808
   11      H      -1.3062476152     0.8758062857     0.9143098661
 ----------------------------------------------------------------

    7    -119.0965261253      5.42E-06 Convergence criterion met
    5    -119.1389323528      9.82E-06 Convergence criterion met
 Total energy in the final basis set = -119.13893235

                    Orbital Energies (a.u.)
 --------------------------------------------------------------

 Alpha MOs
 -- Occupied --
-10.2873 -10.2719 -10.2719  -0.8616  -0.7723  -0.6850  -0.5348  -0.5172
 -0.4715  -0.4621  -0.4195  -0.4156  -0.4149

                    Cartesian Multipole Moments
 -----------------------------------------------------------------
    Charge (ESU x 10^10)
                 0.0000
    Dipole Moment (Debye)
         X       0.0000      Y      -0.0053      Z      -0.0284
       Tot       0.0288
    Quadrupole Moments (Debye-Ang)
        XX     -21.7702     XY      -0.0000     YY     -21.5271
        XZ      -0.0000     YZ       0.0154     ZZ     -21.9087

 Total job time:  43.62s(wall), 120.63s(cpu)
        *  Thank you very much for using Q-Chem.  Have a nice day.  *
