 Q-Chem 5.2 (devel), Q-Chem, Inc., Pleasanton, CA (2019)
 Q-Chem 5.2.2 for Intel X86 EM64T Linux

User input:
--------------------------------------------------------------
$rem
   JOBTYPE  sp
   EXCHANGE   omegaB97X-D
   BASIS   6-311+G(2df,2pd)
   max_scf_cycles   250
   geom_opt_max_cycles   1500
   basis2 6-31G*
   scf_algorithm rca_diis
   SYM_IGNORE  TRUE
   print_input   true
   geom_opt_dmax   80
   pop_mulliken false
   XC_GRID 000075000302
$end

$molecule
0 1
C       1.3232239746     0.0013351963     0.2714636572
C       0.0051503949     0.0001056845     -0.5835110822
H       1.2321109901     -0.9034500988     0.8713977735
H       1.2253589055     0.9040525908     0.8731316302
H       2.1470815576     -0.0034055770     -0.4383972024
C       -1.2130421719     -0.0008919899     0.2516955881
H       0.0927427419     -0.8708201631     -1.2374013232
H       0.0954927548     0.8707009056     -1.2374674301
H       -1.3661347463     -0.8490333617     0.9260267777
H       -2.1686050050     0.0035810901     -0.2797888806
H       -1.3733794567     0.8478263892     0.9238955107
--------------------------------------------------------------

             Standard Nuclear Orientation (Angstroms)
    I     Atom           X                Y                Z
 ----------------------------------------------------------------
    1      C       1.3232239746     0.0013351963     0.2714636572
    2      C       0.0051503949     0.0001056845    -0.5835110822
    3      H       1.2321109901    -0.9034500988     0.8713977735
    4      H       1.2253589055     0.9040525908     0.8731316302
    5      H       2.1470815576    -0.0034055770    -0.4383972024
    6      C      -1.2130421719    -0.0008919899     0.2516955881
    7      H       0.0927427419    -0.8708201631    -1.2374013232
    8      H       0.0954927548     0.8707009056    -1.2374674301
    9      H      -1.3661347463    -0.8490333617     0.9260267777
   10      H      -2.1686050050     0.0035810901    -0.2797888806
   11      H      -1.3733794567     0.8478263892     0.9238955107
 ----------------------------------------------------------------

    7    -119.0893663133      5.09E-06 Convergence criterion met
    6    -119.1330539028      4.72E-06 Convergence criterion met
 Total energy in the final basis set = -119.13305390

                    Orbital Energies (a.u.)
 --------------------------------------------------------------

 Alpha MOs
 -- Occupied --
-10.2743 -10.2667 -10.2647  -0.8835  -0.7792  -0.6784  -0.5470  -0.5324
 -0.4771  -0.4631  -0.4417  -0.4057  -0.3923

                    Cartesian Multipole Moments
 -----------------------------------------------------------------
    Charge (ESU x 10^10)
                 0.0000
    Dipole Moment (Debye)
         X      -0.1339      Y       0.0003      Z      -0.1073
       Tot       0.1717
    Quadrupole Moments (Debye-Ang)
        XX     -22.1933     XY      -0.0279     YY     -21.4199
        XZ      -0.9958     YZ      -0.0006     ZZ     -21.9254

 Total job time:  48.85s(wall), 136.02s(cpu)
        *  Thank you very much for using Q-Chem.  Have a nice day.  *
