 Q-Chem 5.2 (devel), Q-Chem, Inc., Pleasanton, CA (2019)
 Q-Chem 5.2.2 for Intel X86 EM64T Linux

User input:
--------------------------------------------------------------
$rem
   JOBTYPE  sp
   EXCHANGE   omegaB97X-D
   BASIS   6-311+G(2df,2pd)
   max_scf_cycles   250
   geom_opt_max_cycles   1500
   basis2 6-31G*
   scf_algorithm rca_diis
   SYM_IGNORE  TRUE
   print_input   true
   geom_opt_dmax   80
   pop_mulliken false
   XC_GRID 000075000302
$end

$molecule
0 1
C       1.2557880150     0.0000521358     0.2370224762
C       -0.0000001748     0.0002796849     -0.6002636921
H       1.3516627303     -0.8584837964     0.9069763113
H       1.3506536820     0.8585351440     0.9071512343
H       2.1908434674     -0.0003643704     -0.3267110693
C       -1.2557883796     0.0000522138     0.2370225823
H       0.0000001073     -0.8746270183     -1.2535613315
H       -0.0000002738     0.8748686169     -1.2540078866
H       -1.3516621945     -0.8584836073     0.9069766435
H       -2.1908433118     -0.0003634838     -0.3267117132
H       -1.3506537281     0.8585351467     0.9071514641
--------------------------------------------------------------

             Standard Nuclear Orientation (Angstroms)
    I     Atom           X                Y                Z
 ----------------------------------------------------------------
    1      C       1.2557880150     0.0000521358     0.2370224762
    2      C      -0.0000001748     0.0002796849    -0.6002636921
    3      H       1.3516627303    -0.8584837964     0.9069763113
    4      H       1.3506536820     0.8585351440     0.9071512343
    5      H       2.1908434674    -0.0003643704    -0.3267110693
    6      C      -1.2557883796     0.0000522138     0.2370225823
    7      H       0.0000001073    -0.8746270183    -1.2535613315
    8      H      -0.0000002738     0.8748686169    -1.2540078866
    9      H      -1.3516621945    -0.8584836073     0.9069766435
   10      H      -2.1908433118    -0.0003634838    -0.3267117132
   11      H      -1.3506537281     0.8585351467     0.9071514641
 ----------------------------------------------------------------

    7    -119.0997051974      4.44E-06 Convergence criterion met
    5    -119.1429345876      9.71E-06 Convergence criterion met
 Total energy in the final basis set = -119.14293459

                    Orbital Energies (a.u.)
 --------------------------------------------------------------

 Alpha MOs
 -- Occupied --
-10.2766 -10.2643 -10.2643  -0.8837  -0.7792  -0.6840  -0.5436  -0.5247
 -0.4855  -0.4569  -0.4231  -0.4195  -0.4048

                    Cartesian Multipole Moments
 -----------------------------------------------------------------
    Charge (ESU x 10^10)
                -0.0000
    Dipole Moment (Debye)
         X       0.0000      Y      -0.0007      Z      -0.0448
       Tot       0.0448
    Quadrupole Moments (Debye-Ang)
        XX     -21.7424     XY      -0.0000     YY     -21.5613
        XZ       0.0000     YZ       0.0000     ZZ     -21.7667

 Total job time:  43.45s(wall), 120.37s(cpu)
        *  Thank you very much for using Q-Chem.  Have a nice day.  *
