 Q-Chem 5.2 (devel), Q-Chem, Inc., Pleasanton, CA (2019)
 Q-Chem 5.2.2 for Intel X86 EM64T Linux

User input:
--------------------------------------------------------------
$rem
   JOBTYPE  sp
   EXCHANGE   omegaB97X-D
   BASIS   6-311+G(2df,2pd)
   max_scf_cycles   250
   geom_opt_max_cycles   1500
   basis2 6-31G*
   scf_algorithm rca_diis
   SYM_IGNORE  TRUE
   print_input   true
   geom_opt_dmax   80
   pop_mulliken false
   XC_GRID 000075000302
$end

$molecule
0 1
C       1.2801481448     0.0003069739     0.2463744278
C       0.0039352918     0.0000032262     -0.5872405618
H       1.3198241971     -0.9020660496     0.9103202460
H       1.3195530612     0.9009019647     0.9091262705
H       2.1207992853     0.0003793833     -0.3389538254
C       -1.2541271310     -0.0003005832     0.2724612319
H       0.0000958899     -0.8738704682     -1.2430584407
H       -0.0000689319     0.8738700665     -1.2430511022
H       -1.2906542492     -0.8591469747     0.8973190967
H       -2.2085901670     -0.0003806929     -0.3807518199
H       -1.2909154515     0.8603038201     0.8984994959
--------------------------------------------------------------

             Standard Nuclear Orientation (Angstroms)
    I     Atom           X                Y                Z
 ----------------------------------------------------------------
    1      C       1.2801481448     0.0003069739     0.2463744278
    2      C       0.0039352918     0.0000032262    -0.5872405618
    3      H       1.3198241971    -0.9020660496     0.9103202460
    4      H       1.3195530612     0.9009019647     0.9091262705
    5      H       2.1207992853     0.0003793833    -0.3389538254
    6      C      -1.2541271310    -0.0003005832     0.2724612319
    7      H       0.0000958899    -0.8738704682    -1.2430584407
    8      H      -0.0000689319     0.8738700665    -1.2430511022
    9      H      -1.2906542492    -0.8591469747     0.8973190967
   10      H      -2.2085901670    -0.0003806929    -0.3807518199
   11      H      -1.2909154515     0.8603038201     0.8984994959
 ----------------------------------------------------------------

    7    -119.0956956997      4.69E-06 Convergence criterion met
    5    -119.1389111955      9.98E-06 Convergence criterion met
 Total energy in the final basis set = -119.13891120

                    Orbital Energies (a.u.)
 --------------------------------------------------------------

 Alpha MOs
 -- Occupied --
-10.2745 -10.2655 -10.2640  -0.8817  -0.7783  -0.6785  -0.5462  -0.5256
 -0.4819  -0.4640  -0.4218  -0.4142  -0.4074

                    Cartesian Multipole Moments
 -----------------------------------------------------------------
    Charge (ESU x 10^10)
                 0.0000
    Dipole Moment (Debye)
         X       0.0824      Y       0.0003      Z      -0.0831
       Tot       0.1170
    Quadrupole Moments (Debye-Ang)
        XX     -22.1985     XY       0.0043     YY     -21.3625
        XZ      -0.1298     YZ       0.0001     ZZ     -21.8344

 Total job time:  43.99s(wall), 122.07s(cpu)
        *  Thank you very much for using Q-Chem.  Have a nice day.  *
