 Q-Chem 5.2 (devel), Q-Chem, Inc., Pleasanton, CA (2019)
 Q-Chem 5.2.2 for Intel X86 EM64T Linux

User input:
--------------------------------------------------------------
$rem
   JOBTYPE  sp
   EXCHANGE   omegaB97X-D
   BASIS   6-311+G(2df,2pd)
   max_scf_cycles   250
   geom_opt_max_cycles   1500
   basis2 6-31G*
   scf_algorithm rca_diis
   SYM_IGNORE  TRUE
   print_input   true
   geom_opt_dmax   80
   pop_mulliken false
   XC_GRID 000075000302
$end

$molecule
0 1
C       1.3441495870     -0.0036227274     0.3495338611
C       0.1973431691     0.0004498578     -0.5652683066
H       1.3071365682     -0.9335573312     0.9096198399
H       1.3230846021     0.9295352716     0.9057525080
H       2.1322227947     0.0095571635     -0.3995444313
C       -1.2062552376     0.0043958386     0.1626082522
H       -0.1251270205     -0.8222317128     -1.2078926607
H       -0.1425712164     0.8173587057     -1.2062645482
H       -1.3408435607     -0.8205227858     0.8739207776
H       -2.1651354506     -0.0060603388     -0.3630827842
H       -1.3240042959     0.8246987248     0.8816625111
--------------------------------------------------------------

             Standard Nuclear Orientation (Angstroms)
    I     Atom           X                Y                Z
 ----------------------------------------------------------------
    1      C       1.3441495870    -0.0036227274     0.3495338611
    2      C       0.1973431691     0.0004498578    -0.5652683066
    3      H       1.3071365682    -0.9335573312     0.9096198399
    4      H       1.3230846021     0.9295352716     0.9057525080
    5      H       2.1322227947     0.0095571635    -0.3995444313
    6      C      -1.2062552376     0.0043958386     0.1626082522
    7      H      -0.1251270205    -0.8222317128    -1.2078926607
    8      H      -0.1425712164     0.8173587057    -1.2062645482
    9      H      -1.3408435607    -0.8205227858     0.8739207776
   10      H      -2.1651354506    -0.0060603388    -0.3630827842
   11      H      -1.3240042959     0.8246987248     0.8816625111
 ----------------------------------------------------------------

    7    -119.0536882176      6.40E-06 Convergence criterion met
    5    -119.0985915756      9.38E-06 Convergence criterion met
 Total energy in the final basis set = -119.09859158

                    Orbital Energies (a.u.)
 --------------------------------------------------------------

 Alpha MOs
 -- Occupied --
-10.2760 -10.2734 -10.2618  -0.8902  -0.7855  -0.6832  -0.5493  -0.5261
 -0.4983  -0.4659  -0.4314  -0.3907  -0.3848

                    Cartesian Multipole Moments
 -----------------------------------------------------------------
    Charge (ESU x 10^10)
                -0.0000
    Dipole Moment (Debye)
         X       0.0332      Y      -0.0036      Z      -0.0419
       Tot       0.0536
    Quadrupole Moments (Debye-Ang)
        XX     -22.1357     XY       0.0540     YY     -21.6342
        XZ       0.3788     YZ       0.0056     ZZ     -22.0402

 Total job time:  44.28s(wall), 123.07s(cpu)
        *  Thank you very much for using Q-Chem.  Have a nice day.  *
