 Q-Chem 5.2 (devel), Q-Chem, Inc., Pleasanton, CA (2019)
 Q-Chem 5.2.2 for Intel X86 EM64T Linux

User input:
--------------------------------------------------------------
$rem
   JOBTYPE  sp
   EXCHANGE   omegaB97X-D
   BASIS   6-311+G(2df,2pd)
   max_scf_cycles   250
   geom_opt_max_cycles   1500
   basis2 6-31G*
   scf_algorithm rca_diis
   SYM_IGNORE  TRUE
   print_input   true
   geom_opt_dmax   80
   pop_mulliken false
   XC_GRID 000075000302
$end

$molecule
0 1
C       1.2752622431     0.0338050625     0.1424506730
C       -0.0000001284     -0.0369344289     -0.5195974735
H       1.0331654368     -0.8018786931     0.8108225709
H       1.1136100693     0.8362110542     0.8660241843
H       2.2988779078     -0.0398609368     -0.2056446785
C       -1.2752621641     0.0338051431     0.1424505102
H       0.0000006007     -0.8740927656     -1.2172198669
H       -0.0000003822     0.8544739285     -1.1494430205
H       -1.0331656934     -0.8018786790     0.8108224668
H       -2.2988781217     -0.0398602360     -0.2056443127
H       -1.1136098286     0.8362112171     0.8660239656
--------------------------------------------------------------

             Standard Nuclear Orientation (Angstroms)
    I     Atom           X                Y                Z
 ----------------------------------------------------------------
    1      C       1.2752622431     0.0338050625     0.1424506730
    2      C      -0.0000001284    -0.0369344289    -0.5195974735
    3      H       1.0331654368    -0.8018786931     0.8108225709
    4      H       1.1136100693     0.8362110542     0.8660241843
    5      H       2.2988779078    -0.0398609368    -0.2056446785
    6      C      -1.2752621641     0.0338051431     0.1424505102
    7      H       0.0000006007    -0.8740927656    -1.2172198669
    8      H      -0.0000003822     0.8544739285    -1.1494430205
    9      H      -1.0331656934    -0.8018786790     0.8108224668
   10      H      -2.2988781217    -0.0398602360    -0.2056443127
   11      H      -1.1136098286     0.8362112171     0.8660239656
 ----------------------------------------------------------------

    7    -119.0286044770      4.97E-06 Convergence criterion met
    6    -119.0752887895      4.30E-06 Convergence criterion met
 Total energy in the final basis set = -119.07528879

                    Orbital Energies (a.u.)
 --------------------------------------------------------------

 Alpha MOs
 -- Occupied --
-10.2666 -10.2666 -10.2656  -0.9196  -0.7949  -0.6745  -0.5658  -0.5623
 -0.4921  -0.4755  -0.4421  -0.3955  -0.3588

                    Cartesian Multipole Moments
 -----------------------------------------------------------------
    Charge (ESU x 10^10)
                 0.0000
    Dipole Moment (Debye)
         X      -0.0000      Y      -0.0389      Z      -0.0222
       Tot       0.0447
    Quadrupole Moments (Debye-Ang)
        XX     -20.3924     XY      -0.0000     YY     -22.1533
        XZ      -0.0000     YZ       0.4992     ZZ     -23.1296

 Total job time:  49.74s(wall), 138.94s(cpu)
        *  Thank you very much for using Q-Chem.  Have a nice day.  *
