 Q-Chem 5.2 (devel), Q-Chem, Inc., Pleasanton, CA (2019)
 Q-Chem 5.2.2 for Intel X86 EM64T Linux

User input:
--------------------------------------------------------------
$rem
   JOBTYPE  sp
   EXCHANGE   omegaB97X-D
   BASIS   6-311+G(2df,2pd)
   max_scf_cycles   250
   geom_opt_max_cycles   1500
   basis2 6-31G*
   scf_algorithm rca_diis
   SYM_IGNORE  TRUE
   print_input   true
   geom_opt_dmax   80
   pop_mulliken false
   XC_GRID 000075000302
$end

$molecule
0 1
C       1.2483001793     -0.0292860073     0.3296227758
C       0.0000000619     0.0250338873     -0.6297483410
H       1.4449477218     -0.9033203022     0.9482353401
H       1.3940082586     0.8814595721     0.9132879815
H       2.0388856200     0.0334295298     -0.4247312338
C       -1.2483002643     -0.0292859806     0.3296228687
H       -0.0000002828     -0.8729527592     -1.2551537525
H       0.0000000927     0.8833533597     -1.3068827770
H       -1.4449476148     -0.9033202971     0.9482354094
H       -2.0388853750     0.0334301249     -0.4247313832
H       -1.3940084580     0.8814595385     0.9132881307
--------------------------------------------------------------

             Standard Nuclear Orientation (Angstroms)
    I     Atom           X                Y                Z
 ----------------------------------------------------------------
    1      C       1.2483001793    -0.0292860073     0.3296227758
    2      C       0.0000000619     0.0250338873    -0.6297483410
    3      H       1.4449477218    -0.9033203022     0.9482353401
    4      H       1.3940082586     0.8814595721     0.9132879815
    5      H       2.0388856200     0.0334295298    -0.4247312338
    6      C      -1.2483002643    -0.0292859806     0.3296228687
    7      H      -0.0000002828    -0.8729527592    -1.2551537525
    8      H       0.0000000927     0.8833533597    -1.3068827770
    9      H      -1.4449476148    -0.9033202971     0.9482354094
   10      H      -2.0388853750     0.0334301249    -0.4247313832
   11      H      -1.3940084580     0.8814595385     0.9132881307
 ----------------------------------------------------------------

    7    -119.0800470613      5.82E-06 Convergence criterion met
    5    -119.1231471579      8.25E-06 Convergence criterion met
 Total energy in the final basis set = -119.12314716

                    Orbital Energies (a.u.)
 --------------------------------------------------------------

 Alpha MOs
 -- Occupied --
-10.2863 -10.2652 -10.2652  -0.8702  -0.7725  -0.6827  -0.5394  -0.5041
 -0.4913  -0.4650  -0.4422  -0.4159  -0.3717

                    Cartesian Multipole Moments
 -----------------------------------------------------------------
    Charge (ESU x 10^10)
                 0.0000
    Dipole Moment (Debye)
         X       0.0000      Y       0.0204      Z      -0.2033
       Tot       0.2043
    Quadrupole Moments (Debye-Ang)
        XX     -23.0960     XY      -0.0000     YY     -21.1550
        XZ       0.0000     YZ      -0.3738     ZZ     -21.2477

 Total job time:  44.18s(wall), 122.74s(cpu)
        *  Thank you very much for using Q-Chem.  Have a nice day.  *
