 Q-Chem 5.2 (devel), Q-Chem, Inc., Pleasanton, CA (2019)
 Q-Chem 5.2.2 for Intel X86 EM64T Linux

User input:
--------------------------------------------------------------
$rem
   JOBTYPE  sp
   EXCHANGE   omegaB97X-D
   BASIS   6-311+G(2df,2pd)
   max_scf_cycles   250
   geom_opt_max_cycles   1500
   basis2 6-31G*
   scf_algorithm rca_diis
   SYM_IGNORE  TRUE
   print_input   true
   geom_opt_dmax   80
   pop_mulliken false
   XC_GRID 000075000302
$end

$molecule
0 1
C       1.3823689323     0.0030790163     0.2898661020
C       0.0131889742     0.0004514612     -0.5724828634
H       1.1475374688     -0.9130134433     0.8257607443
H       1.1343822372     0.9137159516     0.8284216467
H       2.1109036408     -0.0067363224     -0.5134825656
C       -1.1591781645     -0.0012979472     0.2462874127
H       0.1869465379     -0.8618094040     -1.2206119203
H       0.1924531916     0.8614191055     -1.2208313726
H       -1.4163190239     -0.8104721086     0.9405208019
H       -2.1612598302     0.0073498335     -0.1985103681
H       -1.4310240249     0.8073145234     0.9361074012
--------------------------------------------------------------

             Standard Nuclear Orientation (Angstroms)
    I     Atom           X                Y                Z
 ----------------------------------------------------------------
    1      C       1.3823689323     0.0030790163     0.2898661020
    2      C       0.0131889742     0.0004514612    -0.5724828634
    3      H       1.1475374688    -0.9130134433     0.8257607443
    4      H       1.1343822372     0.9137159516     0.8284216467
    5      H       2.1109036408    -0.0067363224    -0.5134825656
    6      C      -1.1591781645    -0.0012979472     0.2462874127
    7      H       0.1869465379    -0.8618094040    -1.2206119203
    8      H       0.1924531916     0.8614191055    -1.2208313726
    9      H      -1.4163190239    -0.8104721086     0.9405208019
   10      H      -2.1612598302     0.0073498335    -0.1985103681
   11      H      -1.4310240249     0.8073145234     0.9361074012
 ----------------------------------------------------------------

    7    -119.0472999318      6.47E-06 Convergence criterion met
    6    -119.0934346604      5.48E-06 Convergence criterion met
 Total energy in the final basis set = -119.09343466

                    Orbital Energies (a.u.)
 --------------------------------------------------------------

 Alpha MOs
 -- Occupied --
-10.2763 -10.2683 -10.2662  -0.8910  -0.7859  -0.6809  -0.5510  -0.5507
 -0.4724  -0.4609  -0.4560  -0.4010  -0.3660

                    Cartesian Multipole Moments
 -----------------------------------------------------------------
    Charge (ESU x 10^10)
                 0.0000
    Dipole Moment (Debye)
         X      -0.3563      Y       0.0010      Z      -0.1896
       Tot       0.4036
    Quadrupole Moments (Debye-Ang)
        XX     -22.3234     XY      -0.0568     YY     -21.5963
        XZ      -2.0362     YZ      -0.0029     ZZ     -22.1694

 Total job time:  49.68s(wall), 138.61s(cpu)
        *  Thank you very much for using Q-Chem.  Have a nice day.  *
