 Q-Chem 5.2 (devel), Q-Chem, Inc., Pleasanton, CA (2019)
 Q-Chem 5.2.2 for Intel X86 EM64T Linux

User input:
--------------------------------------------------------------
$rem
   JOBTYPE  sp
   EXCHANGE   omegaB97X-D
   BASIS   6-311+G(2df,2pd)
   max_scf_cycles   250
   geom_opt_max_cycles   1500
   basis2 6-31G*
   scf_algorithm rca_diis
   SYM_IGNORE  TRUE
   print_input   true
   geom_opt_dmax   80
   pop_mulliken false
   XC_GRID 000075000302
$end

$molecule
0 1
C       1.3670478892     -0.0001092638     0.2609389259
C       -0.0000000333     0.0014728268     -0.4384809248
H       1.5319572612     -0.8835913793     0.8799529646
H       1.5343139917     0.8822213374     0.8811986594
H       2.1274636488     0.0015343524     -0.5226068157
C       -1.3670480330     -0.0001093477     0.2609387484
H       0.0000003578     -0.8643333264     -1.1069729768
H       -0.0000002180     0.8627503329     -1.1124684391
H       -1.5319573129     -0.8835912350     0.8799531167
H       -2.1274639215     0.0015350505     -0.5226067433
H       -1.5343136907     0.8822213183     0.8811985036
--------------------------------------------------------------

             Standard Nuclear Orientation (Angstroms)
    I     Atom           X                Y                Z
 ----------------------------------------------------------------
    1      C       1.3670478892    -0.0001092638     0.2609389259
    2      C      -0.0000000333     0.0014728268    -0.4384809248
    3      H       1.5319572612    -0.8835913793     0.8799529646
    4      H       1.5343139917     0.8822213374     0.8811986594
    5      H       2.1274636488     0.0015343524    -0.5226068157
    6      C      -1.3670480330    -0.0001093477     0.2609387484
    7      H       0.0000003578    -0.8643333264    -1.1069729768
    8      H      -0.0000002180     0.8627503329    -1.1124684391
    9      H      -1.5319573129    -0.8835912350     0.8799531167
   10      H      -2.1274639215     0.0015350505    -0.5226067433
   11      H      -1.5343136907     0.8822213183     0.8811985036
 ----------------------------------------------------------------

    7    -119.0967517287      4.19E-06 Convergence criterion met
    6    -119.1396443064      4.15E-06 Convergence criterion met
 Total energy in the final basis set = -119.13964431

                    Orbital Energies (a.u.)
 --------------------------------------------------------------

 Alpha MOs
 -- Occupied --
-10.2757 -10.2678 -10.2678  -0.8750  -0.7846  -0.6744  -0.5406  -0.5154
 -0.4913  -0.4701  -0.4251  -0.4062  -0.4028

                    Cartesian Multipole Moments
 -----------------------------------------------------------------
    Charge (ESU x 10^10)
                 0.0000
    Dipole Moment (Debye)
         X       0.0000      Y      -0.0008      Z      -0.1285
       Tot       0.1286
    Quadrupole Moments (Debye-Ang)
        XX     -22.0190     XY      -0.0000     YY     -21.4164
        XZ       0.0000     YZ      -0.0093     ZZ     -21.7810

 Total job time:  47.43s(wall), 132.56s(cpu)
        *  Thank you very much for using Q-Chem.  Have a nice day.  *
