 Q-Chem 5.2 (devel), Q-Chem, Inc., Pleasanton, CA (2019)
 Q-Chem 5.2.2 for Intel X86 EM64T Linux

User input:
--------------------------------------------------------------
$rem
   JOBTYPE  sp
   EXCHANGE   omegaB97X-D
   BASIS   6-311+G(2df,2pd)
   max_scf_cycles   250
   geom_opt_max_cycles   1500
   basis2 6-31G*
   scf_algorithm rca_diis
   SYM_IGNORE  TRUE
   print_input   true
   geom_opt_dmax   80
   pop_mulliken false
   XC_GRID 000075000302
$end

$molecule
0 1
C       1.2561640994     0.0000019150     0.2305033079
C       -0.0000015894     -0.0000263869     -0.6053476147
H       1.3101686305     -1.0244590461     0.9879854712
H       1.3101652594     1.0243689809     0.9878770149
H       2.2872505999     0.0000271157     -0.4659174771
C       -1.2561678337     0.0000014629     0.2305057756
H       -0.0000019444     -0.8796912659     -1.2671577032
H       -0.0000021515     0.8798390512     -1.2673388856
H       -1.3101695659     -1.0244409545     0.9879733287
H       -2.2872389906     0.0000274005     -0.4659046914
H       -1.3101665742     1.0243523932     0.9878664926
--------------------------------------------------------------

             Standard Nuclear Orientation (Angstroms)
    I     Atom           X                Y                Z
 ----------------------------------------------------------------
    1      C       1.2561640994     0.0000019150     0.2305033079
    2      C      -0.0000015894    -0.0000263869    -0.6053476147
    3      H       1.3101686305    -1.0244590461     0.9879854712
    4      H       1.3101652594     1.0243689809     0.9878770149
    5      H       2.2872505999     0.0000271157    -0.4659174771
    6      C      -1.2561678337     0.0000014629     0.2305057756
    7      H      -0.0000019444    -0.8796912659    -1.2671577032
    8      H      -0.0000021515     0.8798390512    -1.2673388856
    9      H      -1.3101695659    -1.0244409545     0.9879733287
   10      H      -2.2872389906     0.0000274005    -0.4659046914
   11      H      -1.3101665742     1.0243523932     0.9878664926
 ----------------------------------------------------------------

    6    -119.0246499701      7.41E-05 Convergence criterion met
    5    -119.0646497558      8.94E-06 Convergence criterion met
 Total energy in the final basis set = -119.06464976

                    Orbital Energies (a.u.)
 --------------------------------------------------------------

 Alpha MOs
 -- Occupied --
-10.3197 -10.3197 -10.2861  -0.8802  -0.7442  -0.6536  -0.5382  -0.5127
 -0.4676  -0.4301  -0.4115  -0.4106  -0.3953

                    Cartesian Multipole Moments
 -----------------------------------------------------------------
    Charge (ESU x 10^10)
                 0.0000
    Dipole Moment (Debye)
         X      -0.0000      Y       0.0001      Z      -0.4015
       Tot       0.4015
    Quadrupole Moments (Debye-Ang)
        XX     -23.4595     XY       0.0000     YY     -22.1002
        XZ      -0.0000     YZ       0.0002     ZZ     -22.5450

 Total job time:  42.52s(wall), 117.78s(cpu)
        *  Thank you very much for using Q-Chem.  Have a nice day.  *
