 Q-Chem 5.2 (devel), Q-Chem, Inc., Pleasanton, CA (2019)
 Q-Chem 5.2.2 for Intel X86 EM64T Linux

User input:
--------------------------------------------------------------
$rem
   JOBTYPE  sp
   EXCHANGE   omegaB97X-D
   BASIS   6-311+G(2df,2pd)
   max_scf_cycles   250
   geom_opt_max_cycles   1500
   basis2 6-31G*
   scf_algorithm rca_diis
   SYM_IGNORE  TRUE
   print_input   true
   geom_opt_dmax   80
   pop_mulliken false
   XC_GRID 000075000302
$end

$molecule
0 1
C       1.2841481752     0.0813690902     0.2361091898
C       0.0105920833     0.0005275841     -0.5820691294
H       1.1582109548     -0.8744454012     0.7550700121
H       1.4018222308     0.8450623541     1.0046064018
H       2.2073407321     -0.0132514978     -0.3346470306
C       -1.2442558155     -0.0832997965     0.2931498228
H       0.1842721850     -0.8537733904     -1.2406748424
H       -0.2469134779     0.8438890601     -1.2271956746
H       -1.4542442336     -0.8557160267     1.0313129177
H       -2.0962926735     0.0175468566     -0.3814682301
H       -1.2046802214     0.8920918333     0.7868515817
--------------------------------------------------------------

             Standard Nuclear Orientation (Angstroms)
    I     Atom           X                Y                Z
 ----------------------------------------------------------------
    1      C       1.2841481752     0.0813690902     0.2361091898
    2      C       0.0105920833     0.0005275841    -0.5820691294
    3      H       1.1582109548    -0.8744454012     0.7550700121
    4      H       1.4018222308     0.8450623541     1.0046064018
    5      H       2.2073407321    -0.0132514978    -0.3346470306
    6      C      -1.2442558155    -0.0832997965     0.2931498228
    7      H       0.1842721850    -0.8537733904    -1.2406748424
    8      H      -0.2469134779     0.8438890601    -1.2271956746
    9      H      -1.4542442336    -0.8557160267     1.0313129177
   10      H      -2.0962926735     0.0175468566    -0.3814682301
   11      H      -1.2046802214     0.8920918333     0.7868515817
 ----------------------------------------------------------------

    7    -119.0836812325      4.84E-06 Convergence criterion met
    6    -119.1272656373      4.08E-06 Convergence criterion met
 Total energy in the final basis set = -119.12726564

                    Orbital Energies (a.u.)
 --------------------------------------------------------------

 Alpha MOs
 -- Occupied --
-10.2779 -10.2665 -10.2651  -0.8860  -0.7803  -0.6773  -0.5522  -0.5271
 -0.4800  -0.4668  -0.4182  -0.4103  -0.4033

                    Cartesian Multipole Moments
 -----------------------------------------------------------------
    Charge (ESU x 10^10)
                 0.0000
    Dipole Moment (Debye)
         X      -0.0350      Y      -0.0165      Z      -0.0659
       Tot       0.0764
    Quadrupole Moments (Debye-Ang)
        XX     -22.0644     XY      -0.0961     YY     -21.5490
        XZ      -0.0422     YZ       0.0136     ZZ     -21.8649

 Total job time:  49.54s(wall), 138.48s(cpu)
        *  Thank you very much for using Q-Chem.  Have a nice day.  *
