 Q-Chem 5.2 (devel), Q-Chem, Inc., Pleasanton, CA (2019)
 Q-Chem 5.2.2 for Intel X86 EM64T Linux

User input:
--------------------------------------------------------------
$rem
   JOBTYPE  sp
   EXCHANGE   omegaB97X-D
   BASIS   6-311+G(2df,2pd)
   max_scf_cycles   250
   geom_opt_max_cycles   1500
   basis2 6-31G*
   scf_algorithm rca_diis
   SYM_IGNORE  TRUE
   print_input   true
   geom_opt_dmax   80
   pop_mulliken false
   XC_GRID 000075000302
$end

$molecule
0 1
C       1.2670582155     -0.0246012325     0.2583989787
C       0.0000000080     -0.0439298014     -0.5895249754
H       1.3478796609     -0.8676366183     0.9465095414
H       1.2551530646     0.8870024935     0.8607496249
H       2.1652143861     0.0076734061     -0.3589292405
C       -1.2670581557     -0.0246012121     0.2583990682
H       0.0000000510     -0.8510404213     -1.3244176328
H       -0.0000001664     0.8900939438     -1.1584702479
H       -1.3478797076     -0.8676365770     0.9465095978
H       -2.1652142555     0.0076740266     -0.3589292288
H       -1.2551531614     0.8870026587     0.8607495332
--------------------------------------------------------------

             Standard Nuclear Orientation (Angstroms)
    I     Atom           X                Y                Z
 ----------------------------------------------------------------
    1      C       1.2670582155    -0.0246012325     0.2583989787
    2      C       0.0000000080    -0.0439298014    -0.5895249754
    3      H       1.3478796609    -0.8676366183     0.9465095414
    4      H       1.2551530646     0.8870024935     0.8607496249
    5      H       2.1652143861     0.0076734061    -0.3589292405
    6      C      -1.2670581557    -0.0246012121     0.2583990682
    7      H       0.0000000510    -0.8510404213    -1.3244176328
    8      H      -0.0000001664     0.8900939438    -1.1584702479
    9      H      -1.3478797076    -0.8676365770     0.9465095978
   10      H      -2.1652142555     0.0076740266    -0.3589292288
   11      H      -1.2551531614     0.8870026587     0.8607495332
 ----------------------------------------------------------------

    7    -119.1013623887      4.51E-06 Convergence criterion met
    6    -119.1443231729      3.88E-06 Convergence criterion met
 Total energy in the final basis set = -119.14432317

                    Orbital Energies (a.u.)
 --------------------------------------------------------------

 Alpha MOs
 -- Occupied --
-10.2743 -10.2653 -10.2653  -0.8816  -0.7771  -0.6777  -0.5464  -0.5240
 -0.4836  -0.4622  -0.4188  -0.4185  -0.4063

                    Cartesian Multipole Moments
 -----------------------------------------------------------------
    Charge (ESU x 10^10)
                -0.0000
    Dipole Moment (Debye)
         X      -0.0000      Y       0.0597      Z      -0.0841
       Tot       0.1031
    Quadrupole Moments (Debye-Ang)
        XX     -22.1617     XY      -0.0000     YY     -21.3959
        XZ      -0.0000     YZ      -0.0336     ZZ     -21.8291

 Total job time:  48.75s(wall), 136.01s(cpu)
        *  Thank you very much for using Q-Chem.  Have a nice day.  *
