 Q-Chem 5.2 (devel), Q-Chem, Inc., Pleasanton, CA (2019)
 Q-Chem 5.2.2 for Intel X86 EM64T Linux

User input:
--------------------------------------------------------------
$rem
   JOBTYPE  sp
   EXCHANGE   omegaB97X-D
   BASIS   6-311+G(2df,2pd)
   max_scf_cycles   250
   geom_opt_max_cycles   1500
   basis2 6-31G*
   scf_algorithm rca_diis
   SYM_IGNORE  TRUE
   print_input   true
   geom_opt_dmax   80
   pop_mulliken false
   XC_GRID 000075000302
$end

$molecule
0 1
C       1.2710609185     -0.0008545893     0.2430961607
C       0.0000000651     -0.0006724495     -0.5996735205
H       1.3066738818     -0.9005868174     0.9054251682
H       1.3068228611     0.9022186553     0.9076434479
H       2.1160239412     -0.0005827001     -0.3376984075
C       -1.2710604765     -0.0008545152     0.2430966161
H       0.0000000280     -0.8652620922     -1.2475699203
H       -0.0000000955     0.8655453207     -1.2486435886
H       -1.3066733559     -0.9005860335     0.9054250026
H       -2.1160254307     -0.0005821105     -0.3376991020
H       -1.3068223976     0.9022179978     0.9076431624
--------------------------------------------------------------

             Standard Nuclear Orientation (Angstroms)
    I     Atom           X                Y                Z
 ----------------------------------------------------------------
    1      C       1.2710609185    -0.0008545893     0.2430961607
    2      C       0.0000000651    -0.0006724495    -0.5996735205
    3      H       1.3066738818    -0.9005868174     0.9054251682
    4      H       1.3068228611     0.9022186553     0.9076434479
    5      H       2.1160239412    -0.0005827001    -0.3376984075
    6      C      -1.2710604765    -0.0008545152     0.2430966161
    7      H       0.0000000280    -0.8652620922    -1.2475699203
    8      H      -0.0000000955     0.8655453207    -1.2486435886
    9      H      -1.3066733559    -0.9005860335     0.9054250026
   10      H      -2.1160254307    -0.0005821105    -0.3376991020
   11      H      -1.3068223976     0.9022179978     0.9076431624
 ----------------------------------------------------------------

    7    -119.0948578423      4.96E-06 Convergence criterion met
    5    -119.1383637624      9.84E-06 Convergence criterion met
 Total energy in the final basis set = -119.13836376

                    Orbital Energies (a.u.)
 --------------------------------------------------------------

 Alpha MOs
 -- Occupied --
-10.2721 -10.2633 -10.2633  -0.8816  -0.7799  -0.6789  -0.5435  -0.5339
 -0.4817  -0.4563  -0.4254  -0.4178  -0.4058

                    Cartesian Multipole Moments
 -----------------------------------------------------------------
    Charge (ESU x 10^10)
                 0.0000
    Dipole Moment (Debye)
         X       0.0000      Y      -0.0061      Z      -0.1934
       Tot       0.1935
    Quadrupole Moments (Debye-Ang)
        XX     -21.9769     XY      -0.0000     YY     -21.3377
        XZ      -0.0000     YZ      -0.0012     ZZ     -21.8718

 Total job time:  44.25s(wall), 122.40s(cpu)
        *  Thank you very much for using Q-Chem.  Have a nice day.  *
