 Q-Chem 5.2 (devel), Q-Chem, Inc., Pleasanton, CA (2019)
 Q-Chem 5.2.2 for Intel X86 EM64T Linux

User input:
--------------------------------------------------------------
$rem
   JOBTYPE  sp
   EXCHANGE   omegaB97X-D
   BASIS   6-311+G(2df,2pd)
   max_scf_cycles   250
   geom_opt_max_cycles   1500
   basis2 6-31G*
   scf_algorithm rca_diis
   SYM_IGNORE  TRUE
   print_input   true
   geom_opt_dmax   80
   pop_mulliken false
   XC_GRID 000075000302
$end

$molecule
0 1
C       1.2749081811     -0.0017013996     0.2266814403
C       0.0000001297     -0.0013387709     -0.6121293965
H       1.3079122239     -0.9203902271     0.9071392864
H       1.3081843952     0.9236640656     0.9115865759
H       2.0672693659     -0.0011925767     -0.3156277370
C       -1.2749072978     -0.0017013064     0.2266823585
H       0.0000000194     -0.8566307087     -1.2521183081
H       -0.0000000930     0.8572096610     -1.2542650301
H       -1.3079112034     -0.9203887584     0.9071389266
H       -2.0672723416     -0.0011919818     -0.3156291234
H       -1.3081834401     0.9236626690     0.9115860262
--------------------------------------------------------------

             Standard Nuclear Orientation (Angstroms)
    I     Atom           X                Y                Z
 ----------------------------------------------------------------
    1      C       1.2749081811    -0.0017013996     0.2266814403
    2      C       0.0000001297    -0.0013387709    -0.6121293965
    3      H       1.3079122239    -0.9203902271     0.9071392864
    4      H       1.3081843952     0.9236640656     0.9115865759
    5      H       2.0672693659    -0.0011925767    -0.3156277370
    6      C      -1.2749072978    -0.0017013064     0.2266823585
    7      H       0.0000000194    -0.8566307087    -1.2521183081
    8      H      -0.0000000930     0.8572096610    -1.2542650301
    9      H      -1.3079112034    -0.9203887584     0.9071389266
   10      H      -2.0672723416    -0.0011919818    -0.3156291234
   11      H      -1.3081834401     0.9236626690     0.9115860262
 ----------------------------------------------------------------

    7    -119.0672551299      5.67E-06 Convergence criterion met
    5    -119.1121832227      9.35E-06 Convergence criterion met
 Total energy in the final basis set = -119.11218322

                    Orbital Energies (a.u.)
 --------------------------------------------------------------

 Alpha MOs
 -- Occupied --
-10.2702 -10.2614 -10.2614  -0.8831  -0.7850  -0.6819  -0.5435  -0.5419
 -0.4813  -0.4497  -0.4320  -0.4176  -0.4041

                    Cartesian Multipole Moments
 -----------------------------------------------------------------
    Charge (ESU x 10^10)
                -0.0000
    Dipole Moment (Debye)
         X       0.0000      Y      -0.0131      Z      -0.2955
       Tot       0.2958
    Quadrupole Moments (Debye-Ang)
        XX     -21.8381     XY      -0.0000     YY     -21.3106
        XZ      -0.0000     YZ      -0.0027     ZZ     -21.8798

 Total job time:  44.13s(wall), 121.77s(cpu)
        *  Thank you very much for using Q-Chem.  Have a nice day.  *
