 Q-Chem 5.2 (devel), Q-Chem, Inc., Pleasanton, CA (2019)
 Q-Chem 5.2.2 for Intel X86 EM64T Linux

User input:
--------------------------------------------------------------
$rem
   JOBTYPE  sp
   EXCHANGE   omegaB97X-D
   BASIS   6-311+G(2df,2pd)
   max_scf_cycles   250
   geom_opt_max_cycles   1500
   basis2 6-31G*
   scf_algorithm rca_diis
   SYM_IGNORE  TRUE
   print_input   true
   geom_opt_dmax   80
   pop_mulliken false
   XC_GRID 000075000302
$end

$molecule
0 1
C       1.2565083724     -0.0165521802     0.2413763361
C       0.0000002488     -0.0195586322     -0.6477021596
H       1.2543183903     -0.9312562743     0.8322488882
H       1.3625165024     0.9133246703     0.8041401392
H       2.1833115831     0.0606221538     -0.3347736691
C       -1.2565078849     -0.0165538832     0.2413766480
H       0.0000011934     -1.0244603145     -1.0579824810
H       -0.0000013756     0.9917352030     -1.0392523474
H       -1.2543099609     -0.9312575985     0.8322489966
H       -2.1833116226     0.0606325929     -0.3347711673
H       -1.3625255072     0.9133249290     0.8041358351
--------------------------------------------------------------

             Standard Nuclear Orientation (Angstroms)
    I     Atom           X                Y                Z
 ----------------------------------------------------------------
    1      C       1.2565083724    -0.0165521802     0.2413763361
    2      C       0.0000002488    -0.0195586322    -0.6477021596
    3      H       1.2543183903    -0.9312562743     0.8322488882
    4      H       1.3625165024     0.9133246703     0.8041401392
    5      H       2.1833115831     0.0606221538    -0.3347736691
    6      C      -1.2565078849    -0.0165538832     0.2413766480
    7      H       0.0000011934    -1.0244603145    -1.0579824810
    8      H      -0.0000013756     0.9917352030    -1.0392523474
    9      H      -1.2543099609    -0.9312575985     0.8322489966
   10      H      -2.1833116226     0.0606325929    -0.3347711673
   11      H      -1.3625255072     0.9133249290     0.8041358351
 ----------------------------------------------------------------

    7    -119.0718999969      7.48E-06 Convergence criterion met
    5    -119.1161294624      8.68E-06 Convergence criterion met
 Total energy in the final basis set = -119.11612946

                    Orbital Energies (a.u.)
 --------------------------------------------------------------

 Alpha MOs
 -- Occupied --
-10.2772 -10.2641 -10.2641  -0.8850  -0.7763  -0.6706  -0.5803  -0.5100
 -0.4817  -0.4646  -0.4304  -0.4109  -0.3830

                    Cartesian Multipole Moments
 -----------------------------------------------------------------
    Charge (ESU x 10^10)
                -0.0000
    Dipole Moment (Debye)
         X      -0.0000      Y       0.0896      Z      -0.0280
       Tot       0.0938
    Quadrupole Moments (Debye-Ang)
        XX     -22.3102     XY      -0.0000     YY     -20.2983
        XZ      -0.0000     YZ      -0.1496     ZZ     -23.3402

 Total job time:  44.62s(wall), 123.41s(cpu)
        *  Thank you very much for using Q-Chem.  Have a nice day.  *
