 Q-Chem 5.2 (devel), Q-Chem, Inc., Pleasanton, CA (2019)
 Q-Chem 5.2.2 for Intel X86 EM64T Linux

User input:
--------------------------------------------------------------
$rem
   JOBTYPE  sp
   EXCHANGE   omegaB97X-D
   BASIS   6-311+G(2df,2pd)
   max_scf_cycles   250
   geom_opt_max_cycles   1500
   basis2 6-31G*
   scf_algorithm rca_diis
   SYM_IGNORE  TRUE
   print_input   true
   geom_opt_dmax   80
   pop_mulliken false
   XC_GRID 000075000302
$end

$molecule
0 1
C       1.2671894749     0.0022522730     0.2593757504
C       0.0000000195     -0.0140682016     -0.5872416808
H       1.3058449769     -0.8962468503     0.9229484876
H       1.3047822900     0.8652574345     0.8846164999
H       2.1642994861     -0.0038409446     -0.3598729993
C       -1.2671894107     0.0022521746     0.2593757589
H       0.0000000785     -0.8339479659     -1.2001349817
H       -0.0000001155     0.9131719334     -1.2857137881
H       -1.3058448087     -0.8962465483     0.9229483075
H       -2.1642997115     -0.0038405288     -0.3598731750
H       -1.3047823401     0.8652578900     0.8846168396
--------------------------------------------------------------

             Standard Nuclear Orientation (Angstroms)
    I     Atom           X                Y                Z
 ----------------------------------------------------------------
    1      C       1.2671894749     0.0022522730     0.2593757504
    2      C       0.0000000195    -0.0140682016    -0.5872416808
    3      H       1.3058449769    -0.8962468503     0.9229484876
    4      H       1.3047822900     0.8652574345     0.8846164999
    5      H       2.1642994861    -0.0038409446    -0.3598729993
    6      C      -1.2671894107     0.0022521746     0.2593757589
    7      H       0.0000000785    -0.8339479659    -1.2001349817
    8      H      -0.0000001155     0.9131719334    -1.2857137881
    9      H      -1.3058448087    -0.8962465483     0.9229483075
   10      H      -2.1642997115    -0.0038405288    -0.3598731750
   11      H      -1.3047823401     0.8652578900     0.8846168396
 ----------------------------------------------------------------

    7    -119.0957775966      4.69E-06 Convergence criterion met
    6    -119.1389963324      3.91E-06 Convergence criterion met
 Total energy in the final basis set = -119.13899633

                    Orbital Energies (a.u.)
 --------------------------------------------------------------

 Alpha MOs
 -- Occupied --
-10.2736 -10.2652 -10.2652  -0.8819  -0.7775  -0.6799  -0.5455  -0.5240
 -0.4841  -0.4624  -0.4230  -0.4189  -0.4027

                    Cartesian Multipole Moments
 -----------------------------------------------------------------
    Charge (ESU x 10^10)
                 0.0000
    Dipole Moment (Debye)
         X       0.0000      Y      -0.0232      Z      -0.0772
       Tot       0.0806
    Quadrupole Moments (Debye-Ang)
        XX     -22.1530     XY      -0.0000     YY     -21.3652
        XZ       0.0000     YZ       0.1295     ZZ     -21.8611

 Total job time:  48.80s(wall), 136.45s(cpu)
        *  Thank you very much for using Q-Chem.  Have a nice day.  *
