 Q-Chem 5.2 (devel), Q-Chem, Inc., Pleasanton, CA (2019)
 Q-Chem 5.2.2 for Intel X86 EM64T Linux

User input:
--------------------------------------------------------------
$rem
   JOBTYPE  sp
   EXCHANGE   omegaB97X-D
   BASIS   6-311+G(2df,2pd)
   max_scf_cycles   250
   geom_opt_max_cycles   1500
   basis2 6-31G*
   scf_algorithm rca_diis
   SYM_IGNORE  TRUE
   print_input   true
   geom_opt_dmax   80
   pop_mulliken false
   XC_GRID 000075000302
$end

$molecule
0 1
C       1.2687870822     0.0000298414     0.2737419923
C       0.0000002133     -0.0000850921     -0.5498887218
H       1.3058104775     -0.8873839233     0.9246975134
H       1.3058666205     0.8869616181     0.9242063225
H       2.1404935952     0.0000406550     -0.3250005797
C       -1.2687865326     0.0000300692     0.2737417103
H       0.0000003235     -1.0462477926     -1.3516984291
H       0.0000001714     1.0470364448     -1.3526592428
H       -1.3058102609     -0.8873864177     0.9246992874
H       -2.1404953728     0.0000412897     -0.3250024191
H       -1.3058663779     0.8869639735     0.9242075856
--------------------------------------------------------------

             Standard Nuclear Orientation (Angstroms)
    I     Atom           X                Y                Z
 ----------------------------------------------------------------
    1      C       1.2687870822     0.0000298414     0.2737419923
    2      C       0.0000002133    -0.0000850921    -0.5498887218
    3      H       1.3058104775    -0.8873839233     0.9246975134
    4      H       1.3058666205     0.8869616181     0.9242063225
    5      H       2.1404935952     0.0000406550    -0.3250005797
    6      C      -1.2687865326     0.0000300692     0.2737417103
    7      H       0.0000003235    -1.0462477926    -1.3516984291
    8      H       0.0000001714     1.0470364448    -1.3526592428
    9      H      -1.3058102609    -0.8873864177     0.9246992874
   10      H      -2.1404953728     0.0000412897    -0.3250024191
   11      H      -1.3058663779     0.8869639735     0.9242075856
 ----------------------------------------------------------------

    7    -119.0616885161      5.00E-06 Convergence criterion met
    6    -119.1038438938      4.10E-06 Convergence criterion met
 Total energy in the final basis set = -119.10384389

                    Orbital Energies (a.u.)
 --------------------------------------------------------------

 Alpha MOs
 -- Occupied --
-10.3181 -10.2683 -10.2683  -0.8789  -0.7851  -0.6524  -0.5327  -0.5312
 -0.4870  -0.4656  -0.4321  -0.4064  -0.3810

                    Cartesian Multipole Moments
 -----------------------------------------------------------------
    Charge (ESU x 10^10)
                -0.0000
    Dipole Moment (Debye)
         X       0.0000      Y      -0.0007      Z       0.2713
       Tot       0.2713
    Quadrupole Moments (Debye-Ang)
        XX     -21.8624     XY      -0.0000     YY     -21.7465
        XZ       0.0000     YZ       0.0019     ZZ     -22.6052

 Total job time:  46.73s(wall), 130.57s(cpu)
        *  Thank you very much for using Q-Chem.  Have a nice day.  *
