 Q-Chem 5.2 (devel), Q-Chem, Inc., Pleasanton, CA (2019)
 Q-Chem 5.2.2 for Intel X86 EM64T Linux

User input:
--------------------------------------------------------------
$rem
   JOBTYPE  sp
   EXCHANGE   omegaB97X-D
   BASIS   6-311+G(2df,2pd)
   max_scf_cycles   250
   geom_opt_max_cycles   1500
   basis2 6-31G*
   scf_algorithm rca_diis
   SYM_IGNORE  TRUE
   print_input   true
   geom_opt_dmax   80
   pop_mulliken false
   XC_GRID 000075000302
$end

$molecule
0 1
C       1.3247637885     -0.0027845544     0.3284270900
C       0.1503712180     0.0002690846     -0.5742887481
H       1.3045299765     -0.9211108526     0.9108261745
H       1.3166053689     0.9182218649     0.9073694176
H       2.1461169233     0.0067552692     -0.3852468820
C       -1.2195440639     0.0032434309     0.1861874081
H       -0.0993465337     -0.8437731927     -1.2215838397
H       -0.1127596713     0.8409895391     -1.2205923790
H       -1.3288567224     -0.8361733153     0.8825319561
H       -2.1655888142     -0.0047913911     -0.3607563229
H       -1.3162915303     0.8391547834     0.8881711444
--------------------------------------------------------------

             Standard Nuclear Orientation (Angstroms)
    I     Atom           X                Y                Z
 ----------------------------------------------------------------
    1      C       1.3247637885    -0.0027845544     0.3284270900
    2      C       0.1503712180     0.0002690846    -0.5742887481
    3      H       1.3045299765    -0.9211108526     0.9108261745
    4      H       1.3166053689     0.9182218649     0.9073694176
    5      H       2.1461169233     0.0067552692    -0.3852468820
    6      C      -1.2195440639     0.0032434309     0.1861874081
    7      H      -0.0993465337    -0.8437731927    -1.2215838397
    8      H      -0.1127596713     0.8409895391    -1.2205923790
    9      H      -1.3288567224    -0.8361733153     0.8825319561
   10      H      -2.1655888142    -0.0047913911    -0.3607563229
   11      H      -1.3162915303     0.8391547834     0.8881711444
 ----------------------------------------------------------------

    7    -119.0747101763      5.68E-06 Convergence criterion met
    5    -119.1187540409      9.65E-06 Convergence criterion met
 Total energy in the final basis set = -119.11875404

                    Orbital Energies (a.u.)
 --------------------------------------------------------------

 Alpha MOs
 -- Occupied --
-10.2753 -10.2714 -10.2617  -0.8864  -0.7819  -0.6807  -0.5477  -0.5250
 -0.4928  -0.4655  -0.4299  -0.3974  -0.3939

                    Cartesian Multipole Moments
 -----------------------------------------------------------------
    Charge (ESU x 10^10)
                 0.0000
    Dipole Moment (Debye)
         X       0.0379      Y      -0.0020      Z      -0.0585
       Tot       0.0697
    Quadrupole Moments (Debye-Ang)
        XX     -22.1396     XY       0.0392     YY     -21.5221
        XZ       0.3101     YZ       0.0032     ZZ     -21.9653

 Total job time:  44.64s(wall), 123.81s(cpu)
        *  Thank you very much for using Q-Chem.  Have a nice day.  *
