 Q-Chem 5.2 (devel), Q-Chem, Inc., Pleasanton, CA (2019)
 Q-Chem 5.2.2 for Intel X86 EM64T Linux

User input:
--------------------------------------------------------------
$rem
   JOBTYPE  sp
   EXCHANGE   omegaB97X-D
   BASIS   6-311+G(2df,2pd)
   max_scf_cycles   250
   geom_opt_max_cycles   1500
   basis2 6-31G*
   scf_algorithm rca_diis
   SYM_IGNORE  TRUE
   print_input   true
   geom_opt_dmax   80
   pop_mulliken false
   XC_GRID 000075000302
$end

$molecule
0 1
C       1.3028697914     -0.0005357204     0.2853697948
C       -0.0532700924     0.0000032138     -0.5862887004
H       1.3403371185     -0.8768136784     0.9374975758
H       1.3379421186     0.8769627371     0.9360486260
H       2.2118108906     -0.0004728087     -0.3171489035
C       -1.2333202884     0.0005202238     0.2319592543
H       -0.1211464085     -0.8728263132     -1.2399835724
H       -0.1196335894     0.8728879847     -1.2400651972
H       -1.2723784927     -0.8843668127     0.8685634180
H       -2.1184363612     0.0004308828     -0.4049174043
H       -1.2747747472     0.8842109572     0.8700101278
--------------------------------------------------------------

             Standard Nuclear Orientation (Angstroms)
    I     Atom           X                Y                Z
 ----------------------------------------------------------------
    1      C       1.3028697914    -0.0005357204     0.2853697948
    2      C      -0.0532700924     0.0000032138    -0.5862887004
    3      H       1.3403371185    -0.8768136784     0.9374975758
    4      H       1.3379421186     0.8769627371     0.9360486260
    5      H       2.2118108906    -0.0004728087    -0.3171489035
    6      C      -1.2333202884     0.0005202238     0.2319592543
    7      H      -0.1211464085    -0.8728263132    -1.2399835724
    8      H      -0.1196335894     0.8728879847    -1.2400651972
    9      H      -1.2723784927    -0.8843668127     0.8685634180
   10      H      -2.1184363612     0.0004308828    -0.4049174043
   11      H      -1.2747747472     0.8842109572     0.8700101278
 ----------------------------------------------------------------

    7    -119.0928045691      4.84E-06 Convergence criterion met
    6    -119.1361535424      4.28E-06 Convergence criterion met
 Total energy in the final basis set = -119.13615354

                    Orbital Energies (a.u.)
 --------------------------------------------------------------

 Alpha MOs
 -- Occupied --
-10.2736 -10.2715 -10.2583  -0.8870  -0.7766  -0.6759  -0.5487  -0.5267
 -0.4820  -0.4639  -0.4309  -0.4052  -0.4045

                    Cartesian Multipole Moments
 -----------------------------------------------------------------
    Charge (ESU x 10^10)
                -0.0000
    Dipole Moment (Debye)
         X      -0.0529      Y       0.0001      Z      -0.0830
       Tot       0.0984
    Quadrupole Moments (Debye-Ang)
        XX     -22.1289     XY      -0.0049     YY     -21.3625
        XZ       0.4182     YZ       0.0001     ZZ     -21.8572

 Total job time:  48.04s(wall), 133.96s(cpu)
        *  Thank you very much for using Q-Chem.  Have a nice day.  *
