 Q-Chem 5.2 (devel), Q-Chem, Inc., Pleasanton, CA (2019)
 Q-Chem 5.2.2 for Intel X86 EM64T Linux

User input:
--------------------------------------------------------------
$rem
   JOBTYPE  sp
   EXCHANGE   omegaB97X-D
   BASIS   6-311+G(2df,2pd)
   max_scf_cycles   250
   geom_opt_max_cycles   1500
   basis2 6-31G*
   scf_algorithm rca_diis
   SYM_IGNORE  TRUE
   print_input   true
   geom_opt_dmax   80
   pop_mulliken false
   XC_GRID 000075000302
$end

$molecule
0 1
C       1.2651251185     -0.0000291576     0.2459575977
C       -0.0000002207     0.0001018917     -0.6240827915
H       1.3041295022     -0.8738885652     0.8837317117
H       1.3040794926     0.8743007305     0.8842390324
H       2.1882465757     -0.0000345313     -0.3942742921
C       -1.2651256750     -0.0000291748     0.2459578835
H       -0.0000001913     -0.6986209132     -1.1375432495
H       -0.0000003883     0.6978216051     -1.1366361549
H       -1.3041296222     -0.8738857620     0.8837300334
H       -2.1882448091     -0.0000341352     -0.3942724426
H       -1.3040798428     0.8742986781     0.8842376909
--------------------------------------------------------------

             Standard Nuclear Orientation (Angstroms)
    I     Atom           X                Y                Z
 ----------------------------------------------------------------
    1      C       1.2651251185    -0.0000291576     0.2459575977
    2      C      -0.0000002207     0.0001018917    -0.6240827915
    3      H       1.3041295022    -0.8738885652     0.8837317117
    4      H       1.3040794926     0.8743007305     0.8842390324
    5      H       2.1882465757    -0.0000345313    -0.3942742921
    6      C      -1.2651256750    -0.0000291748     0.2459578835
    7      H      -0.0000001913    -0.6986209132    -1.1375432495
    8      H      -0.0000003883     0.6978216051    -1.1366361549
    9      H      -1.3041296222    -0.8738857620     0.8837300334
   10      H      -2.1882448091    -0.0000341352    -0.3942724426
   11      H      -1.3040798428     0.8742986781     0.8842376909
 ----------------------------------------------------------------

    7    -118.9978739818      7.42E-06 Convergence criterion met
    5    -119.0472110474      7.64E-06 Convergence criterion met
 Total energy in the final basis set = -119.04721105

                    Orbital Energies (a.u.)
 --------------------------------------------------------------

 Alpha MOs
 -- Occupied --
-10.2646 -10.2646 -10.2219  -0.8983  -0.7718  -0.7143  -0.5728  -0.5169
 -0.4804  -0.4637  -0.4330  -0.4275  -0.4084

                    Cartesian Multipole Moments
 -----------------------------------------------------------------
    Charge (ESU x 10^10)
                 0.0000
    Dipole Moment (Debye)
         X      -0.0000      Y      -0.0006      Z      -0.2605
       Tot       0.2605
    Quadrupole Moments (Debye-Ang)
        XX     -22.2413     XY      -0.0000     YY     -21.0678
        XZ      -0.0000     YZ      -0.0003     ZZ     -21.1292

 Total job time:  44.89s(wall), 124.52s(cpu)
        *  Thank you very much for using Q-Chem.  Have a nice day.  *
