 Q-Chem 5.2 (devel), Q-Chem, Inc., Pleasanton, CA (2019)
 Q-Chem 5.2.2 for Intel X86 EM64T Linux

User input:
--------------------------------------------------------------
$rem
   JOBTYPE  sp
   EXCHANGE   omegaB97X-D
   BASIS   6-311+G(2df,2pd)
   max_scf_cycles   250
   geom_opt_max_cycles   1500
   basis2 6-31G*
   scf_algorithm rca_diis
   SYM_IGNORE  TRUE
   print_input   true
   geom_opt_dmax   80
   pop_mulliken false
   XC_GRID 000075000302
$end

$molecule
0 1
C       1.2621205665     -0.0091172647     0.2831928793
C       0.0000000214     0.0079490219     -0.6010333302
H       1.3555380859     -0.8901088330     0.9195922272
H       1.3375872074     0.8827498749     0.9083160797
H       2.1256097262     0.0109823467     -0.3846867706
C       -1.2621205924     -0.0091172182     0.2831929105
H       -0.0000000711     -0.8738964918     -1.2470644903
H       -0.0000000363     0.8769351347     -1.2636860364
H       -1.3555380205     -0.8901087617     0.9195922719
H       -2.1256096543     0.0109829281     -0.3846868288
H       -1.3375872934     0.8827499291     0.9083161066
--------------------------------------------------------------

             Standard Nuclear Orientation (Angstroms)
    I     Atom           X                Y                Z
 ----------------------------------------------------------------
    1      C       1.2621205665    -0.0091172647     0.2831928793
    2      C       0.0000000214     0.0079490219    -0.6010333302
    3      H       1.3555380859    -0.8901088330     0.9195922272
    4      H       1.3375872074     0.8827498749     0.9083160797
    5      H       2.1256097262     0.0109823467    -0.3846867706
    6      C      -1.2621205924    -0.0091172182     0.2831929105
    7      H      -0.0000000711    -0.8738964918    -1.2470644903
    8      H      -0.0000000363     0.8769351347    -1.2636860364
    9      H      -1.3555380205    -0.8901087617     0.9195922719
   10      H      -2.1256096543     0.0109829281    -0.3846868288
   11      H      -1.3375872934     0.8827499291     0.9083161066
 ----------------------------------------------------------------

    7    -119.1006264691      5.10E-06 Convergence criterion met
    5    -119.1434017996      9.21E-06 Convergence criterion met
 Total energy in the final basis set = -119.14340180

                    Orbital Energies (a.u.)
 --------------------------------------------------------------

 Alpha MOs
 -- Occupied --
-10.2779 -10.2650 -10.2650  -0.8766  -0.7752  -0.6792  -0.5432  -0.5172
 -0.4851  -0.4651  -0.4257  -0.4115  -0.4032

                    Cartesian Multipole Moments
 -----------------------------------------------------------------
    Charge (ESU x 10^10)
                 0.0000
    Dipole Moment (Debye)
         X       0.0000      Y       0.0061      Z      -0.1149
       Tot       0.1150
    Quadrupole Moments (Debye-Ang)
        XX     -22.4896     XY      -0.0000     YY     -21.2737
        XZ       0.0000     YZ      -0.1182     ZZ     -21.6264

 Total job time:  44.72s(wall), 123.82s(cpu)
        *  Thank you very much for using Q-Chem.  Have a nice day.  *
