 Q-Chem 5.2 (devel), Q-Chem, Inc., Pleasanton, CA (2019)
 Q-Chem 5.2.2 for Intel X86 EM64T Linux

User input:
--------------------------------------------------------------
$rem
   JOBTYPE  sp
   EXCHANGE   omegaB97X-D
   BASIS   6-311+G(2df,2pd)
   max_scf_cycles   250
   geom_opt_max_cycles   1500
   basis2 6-31G*
   scf_algorithm rca_diis
   SYM_IGNORE  TRUE
   print_input   true
   geom_opt_dmax   80
   pop_mulliken false
   XC_GRID 000075000302
$end

$molecule
0 1
C       1.2640317143     0.0116837898     0.2742616591
C       0.0000000028     0.0066139774     -0.5731434726
H       1.3448530451     -0.9038379830     0.8634060088
H       1.2917643658     0.9168709677     0.8811280040
H       2.1777066723     -0.0354429340     -0.3218377631
C       -1.2640317832     0.0116836743     0.2742614672
H       0.0000001974     -0.8582346398     -1.2407793988
H       -0.0000001820     0.8730720605     -1.2389482332
H       -1.3448520511     -0.9038375825     0.8634066785
H       -2.1777066896     -0.0354412883     -0.3218381185
H       -1.2917653525     0.9168706239     0.8811281874
--------------------------------------------------------------

             Standard Nuclear Orientation (Angstroms)
    I     Atom           X                Y                Z
 ----------------------------------------------------------------
    1      C       1.2640317143     0.0116837898     0.2742616591
    2      C       0.0000000028     0.0066139774    -0.5731434726
    3      H       1.3448530451    -0.9038379830     0.8634060088
    4      H       1.2917643658     0.9168709677     0.8811280040
    5      H       2.1777066723    -0.0354429340    -0.3218377631
    6      C      -1.2640317832     0.0116836743     0.2742614672
    7      H       0.0000001974    -0.8582346398    -1.2407793988
    8      H      -0.0000001820     0.8730720605    -1.2389482332
    9      H      -1.3448520511    -0.9038375825     0.8634066785
   10      H      -2.1777066896    -0.0354412883    -0.3218381185
   11      H      -1.2917653525     0.9168706239     0.8811281874
 ----------------------------------------------------------------

    7    -119.0996051741      4.90E-06 Convergence criterion met
    6    -119.1427331059      3.72E-06 Convergence criterion met
 Total energy in the final basis set = -119.14273311

                    Orbital Energies (a.u.)
 --------------------------------------------------------------

 Alpha MOs
 -- Occupied --
-10.2736 -10.2651 -10.2651  -0.8817  -0.7780  -0.6774  -0.5513  -0.5224
 -0.4762  -0.4701  -0.4189  -0.4126  -0.4080

                    Cartesian Multipole Moments
 -----------------------------------------------------------------
    Charge (ESU x 10^10)
                -0.0000
    Dipole Moment (Debye)
         X       0.0000      Y      -0.0497      Z      -0.1315
       Tot       0.1406
    Quadrupole Moments (Debye-Ang)
        XX     -22.0060     XY      -0.0000     YY     -21.0754
        XZ       0.0000     YZ       0.1253     ZZ     -22.2199

 Total job time:  48.18s(wall), 134.34s(cpu)
        *  Thank you very much for using Q-Chem.  Have a nice day.  *
