 Q-Chem 5.2 (devel), Q-Chem, Inc., Pleasanton, CA (2019)
 Q-Chem 5.2.2 for Intel X86 EM64T Linux

User input:
--------------------------------------------------------------
$rem
   JOBTYPE  sp
   EXCHANGE   omegaB97X-D
   BASIS   6-311+G(2df,2pd)
   max_scf_cycles   250
   geom_opt_max_cycles   1500
   basis2 6-31G*
   scf_algorithm rca_diis
   SYM_IGNORE  TRUE
   print_input   true
   geom_opt_dmax   80
   pop_mulliken false
   XC_GRID 000075000302
$end

$molecule
0 1
C       1.2433705240     -0.1165858945     0.2551574768
C       0.0000000321     -0.2100482541     -0.6270814284
H       1.4616948004     -0.7806126534     1.0896611093
H       1.0203825376     0.8720964952     0.6723367907
H       2.1375570883     0.0467332832     -0.3459824139
C       -1.2433702315     -0.1165860137     0.2551579296
H       0.0000000409     -0.7101828193     -1.5926610420
H       -0.0000003884     0.8769683243     -0.7815587168
H       -1.4616951137     -0.7806127391     1.0896613166
H       -2.1375564091     0.0467339820     -0.3459823450
H       -1.0203829413     0.8720969553     0.6723363420
--------------------------------------------------------------

             Standard Nuclear Orientation (Angstroms)
    I     Atom           X                Y                Z
 ----------------------------------------------------------------
    1      C       1.2433705240    -0.1165858945     0.2551574768
    2      C       0.0000000321    -0.2100482541    -0.6270814284
    3      H       1.4616948004    -0.7806126534     1.0896611093
    4      H       1.0203825376     0.8720964952     0.6723367907
    5      H       2.1375570883     0.0467332832    -0.3459824139
    6      C      -1.2433702315    -0.1165860137     0.2551579296
    7      H       0.0000000409    -0.7101828193    -1.5926610420
    8      H      -0.0000003884     0.8769683243    -0.7815587168
    9      H      -1.4616951137    -0.7806127391     1.0896613166
   10      H      -2.1375564091     0.0467339820    -0.3459823450
   11      H      -1.0203829413     0.8720969553     0.6723363420
 ----------------------------------------------------------------

    7    -119.0515404794      5.57E-06 Convergence criterion met
    6    -119.0966907365      3.80E-06 Convergence criterion met
 Total energy in the final basis set = -119.09669074

                    Orbital Energies (a.u.)
 --------------------------------------------------------------

 Alpha MOs
 -- Occupied --
-10.2782 -10.2685 -10.2685  -0.8977  -0.7779  -0.6754  -0.5650  -0.5210
 -0.4953  -0.4467  -0.4302  -0.4135  -0.3830

                    Cartesian Multipole Moments
 -----------------------------------------------------------------
    Charge (ESU x 10^10)
                -0.0000
    Dipole Moment (Debye)
         X      -0.0000      Y       0.2981      Z      -0.1142
       Tot       0.3192
    Quadrupole Moments (Debye-Ang)
        XX     -22.2599     XY      -0.0000     YY     -21.8466
        XZ      -0.0000     YZ      -0.1529     ZZ     -21.6485

 Total job time:  49.38s(wall), 137.70s(cpu)
        *  Thank you very much for using Q-Chem.  Have a nice day.  *
