 Q-Chem 5.2 (devel), Q-Chem, Inc., Pleasanton, CA (2019)
 Q-Chem 5.2.2 for Intel X86 EM64T Linux

User input:
--------------------------------------------------------------
$rem
   JOBTYPE  sp
   EXCHANGE   omegaB97X-D
   BASIS   6-311+G(2df,2pd)
   max_scf_cycles   250
   geom_opt_max_cycles   1500
   basis2 6-31G*
   scf_algorithm rca_diis
   SYM_IGNORE  TRUE
   print_input   true
   geom_opt_dmax   80
   pop_mulliken false
   XC_GRID 000075000302
$end

$molecule
0 1
C       1.2322053313     0.1170132947     0.2658632684
C       -0.0000000519     0.2085381091     -0.6205366377
H       1.0327198418     -0.8847772923     0.6608306919
H       1.4743856484     0.7931500164     1.0827579599
H       2.1179758322     -0.0444732615     -0.3505505516
C       -1.2322056562     0.1170135140     0.2658628660
H       -0.0000001340     -0.8789625435     -0.7702663288
H       0.0000002611     0.7085988331     -1.5859543803
H       -1.0327193811     -0.8847768281     0.6608306747
H       -2.1179763832     -0.0444729993     -0.3505506099
H       -1.4743853689     0.7931498235     1.0827580665
--------------------------------------------------------------

             Standard Nuclear Orientation (Angstroms)
    I     Atom           X                Y                Z
 ----------------------------------------------------------------
    1      C       1.2322053313     0.1170132947     0.2658632684
    2      C      -0.0000000519     0.2085381091    -0.6205366377
    3      H       1.0327198418    -0.8847772923     0.6608306919
    4      H       1.4743856484     0.7931500164     1.0827579599
    5      H       2.1179758322    -0.0444732615    -0.3505505516
    6      C      -1.2322056562     0.1170135140     0.2658628660
    7      H      -0.0000001340    -0.8789625435    -0.7702663288
    8      H       0.0000002611     0.7085988331    -1.5859543803
    9      H      -1.0327193811    -0.8847768281     0.6608306747
   10      H      -2.1179763832    -0.0444729993    -0.3505506099
   11      H      -1.4743853689     0.7931498235     1.0827580665
 ----------------------------------------------------------------

    7    -119.0497772586      5.83E-06 Convergence criterion met
    6    -119.0950603032      3.56E-06 Convergence criterion met
 Total energy in the final basis set = -119.09506030

                    Orbital Energies (a.u.)
 --------------------------------------------------------------

 Alpha MOs
 -- Occupied --
-10.2771 -10.2675 -10.2675  -0.8997  -0.7782  -0.6744  -0.5671  -0.5210
 -0.4965  -0.4473  -0.4298  -0.4098  -0.3842

                    Cartesian Multipole Moments
 -----------------------------------------------------------------
    Charge (ESU x 10^10)
                -0.0000
    Dipole Moment (Debye)
         X       0.0000      Y      -0.2824      Z      -0.1388
       Tot       0.3147
    Quadrupole Moments (Debye-Ang)
        XX     -22.3656     XY       0.0000     YY     -21.6894
        XZ       0.0000     YZ       0.1862     ZZ     -21.7044

 Total job time:  49.64s(wall), 138.56s(cpu)
        *  Thank you very much for using Q-Chem.  Have a nice day.  *
