 Q-Chem 5.2 (devel), Q-Chem, Inc., Pleasanton, CA (2019)
 Q-Chem 5.2.2 for Intel X86 EM64T Linux

User input:
--------------------------------------------------------------
$rem
   JOBTYPE  sp
   EXCHANGE   omegaB97X-D
   BASIS   6-311+G(2df,2pd)
   max_scf_cycles   250
   geom_opt_max_cycles   1500
   basis2 6-31G*
   scf_algorithm rca_diis
   SYM_IGNORE  TRUE
   print_input   true
   geom_opt_dmax   80
   pop_mulliken false
   XC_GRID 000075000302
$end

$molecule
0 1
C       1.2526101339     0.0726245895     0.2633086396
C       -0.0000000284     0.1294406548     -0.5994036803
H       1.1496804092     -0.8950968341     0.7627234553
H       1.4234818091     0.8381201245     1.0193261762
H       2.1450180322     -0.0240840189     -0.3565981925
C       -1.2526103221     0.0726247478     0.2633083868
H       -0.0000000476     -0.9014723328     -0.9705696667
H       0.0000001189     0.7889038560     -1.4665015710
H       -1.1496801288     -0.8950965428     0.7627234268
H       -2.1450183882     -0.0240835959     -0.3565982268
H       -1.4234816488     0.8381200179     1.0193262715
--------------------------------------------------------------

             Standard Nuclear Orientation (Angstroms)
    I     Atom           X                Y                Z
 ----------------------------------------------------------------
    1      C       1.2526101339     0.0726245895     0.2633086396
    2      C      -0.0000000284     0.1294406548    -0.5994036803
    3      H       1.1496804092    -0.8950968341     0.7627234553
    4      H       1.4234818091     0.8381201245     1.0193261762
    5      H       2.1450180322    -0.0240840189    -0.3565981925
    6      C      -1.2526103221     0.0726247478     0.2633083868
    7      H      -0.0000000476    -0.9014723328    -0.9705696667
    8      H       0.0000001189     0.7889038560    -1.4665015710
    9      H      -1.1496801288    -0.8950965428     0.7627234268
   10      H      -2.1450183882    -0.0240835959    -0.3565982268
   11      H      -1.4234816488     0.8381200179     1.0193262715
 ----------------------------------------------------------------

    7    -119.0858479438      4.78E-06 Convergence criterion met
    6    -119.1293876496      3.72E-06 Convergence criterion met
 Total energy in the final basis set = -119.12938765

                    Orbital Energies (a.u.)
 --------------------------------------------------------------

 Alpha MOs
 -- Occupied --
-10.2752 -10.2658 -10.2658  -0.8877  -0.7774  -0.6763  -0.5542  -0.5220
 -0.4889  -0.4568  -0.4229  -0.4146  -0.3994

                    Cartesian Multipole Moments
 -----------------------------------------------------------------
    Charge (ESU x 10^10)
                -0.0000
    Dipole Moment (Debye)
         X       0.0000      Y      -0.1724      Z      -0.1063
       Tot       0.2025
    Quadrupole Moments (Debye-Ang)
        XX     -22.2552     XY      -0.0000     YY     -21.4575
        XZ       0.0000     YZ       0.1063     ZZ     -21.8057

 Total job time:  49.14s(wall), 137.09s(cpu)
        *  Thank you very much for using Q-Chem.  Have a nice day.  *
