 Q-Chem 5.2 (devel), Q-Chem, Inc., Pleasanton, CA (2019)
 Q-Chem 5.2.2 for Intel X86 EM64T Linux

User input:
--------------------------------------------------------------
$rem
   JOBTYPE  sp
   EXCHANGE   omegaB97X-D
   BASIS   6-311+G(2df,2pd)
   max_scf_cycles   250
   geom_opt_max_cycles   1500
   basis2 6-31G*
   scf_algorithm rca_diis
   SYM_IGNORE  TRUE
   print_input   true
   geom_opt_dmax   80
   pop_mulliken false
   XC_GRID 000075000302
$end

$molecule
0 1
C       1.3013525308     -0.0002530055     0.3384148853
C       0.0000007176     -0.0009376622     -0.5366917796
H       1.1408819625     -0.9315017227     0.8773065009
H       1.1439195426     0.9316513319     0.8772047205
H       2.0437740938     0.0010070359     -0.4546460999
C       -1.3013510841     -0.0002529607     0.3384145184
H       0.0000000099     -0.8716480709     -1.2001050385
H       0.0000006550     0.8707794266     -1.1987187407
H       -1.1408836700     -0.9315022481     0.8773061383
H       -2.0437751417     0.0010067530     -0.4546443729
H       -1.1439196770     0.9316517888     0.8772042871
--------------------------------------------------------------

             Standard Nuclear Orientation (Angstroms)
    I     Atom           X                Y                Z
 ----------------------------------------------------------------
    1      C       1.3013525308    -0.0002530055     0.3384148853
    2      C       0.0000007176    -0.0009376622    -0.5366917796
    3      H       1.1408819625    -0.9315017227     0.8773065009
    4      H       1.1439195426     0.9316513319     0.8772047205
    5      H       2.0437740938     0.0010070359    -0.4546460999
    6      C      -1.3013510841    -0.0002529607     0.3384145184
    7      H       0.0000000099    -0.8716480709    -1.2001050385
    8      H       0.0000006550     0.8707794266    -1.1987187407
    9      H      -1.1408836700    -0.9315022481     0.8773061383
   10      H      -2.0437751417     0.0010067530    -0.4546443729
   11      H      -1.1439196770     0.9316517888     0.8772042871
 ----------------------------------------------------------------

    7    -119.0684384498      6.04E-06 Convergence criterion met
    6    -119.1126815385      4.22E-06 Convergence criterion met
 Total energy in the final basis set = -119.11268154

                    Orbital Energies (a.u.)
 --------------------------------------------------------------

 Alpha MOs
 -- Occupied --
-10.2724 -10.2686 -10.2686  -0.8830  -0.7771  -0.6636  -0.5599  -0.5285
 -0.4874  -0.4806  -0.4131  -0.4045  -0.3894

                    Cartesian Multipole Moments
 -----------------------------------------------------------------
    Charge (ESU x 10^10)
                 0.0000
    Dipole Moment (Debye)
         X      -0.0000      Y       0.0025      Z      -0.3464
       Tot       0.3464
    Quadrupole Moments (Debye-Ang)
        XX     -23.9396     XY       0.0000     YY     -20.9073
        XZ      -0.0000     YZ       0.0021     ZZ     -22.2353

 Total job time:  49.42s(wall), 138.17s(cpu)
        *  Thank you very much for using Q-Chem.  Have a nice day.  *
