 Q-Chem 5.2 (devel), Q-Chem, Inc., Pleasanton, CA (2019)
 Q-Chem 5.2.2 for Intel X86 EM64T Linux

User input:
--------------------------------------------------------------
$rem
   JOBTYPE  sp
   EXCHANGE   omegaB97X-D
   BASIS   6-311+G(2df,2pd)
   max_scf_cycles   250
   geom_opt_max_cycles   1500
   basis2 6-31G*
   scf_algorithm rca_diis
   SYM_IGNORE  TRUE
   print_input   true
   geom_opt_dmax   80
   pop_mulliken false
   XC_GRID 000075000302
$end

$molecule
0 1
C       1.2683138239     0.0000203766     0.2689167978
C       0.0000001430     -0.0000560791     -0.5623775999
H       1.3056966934     -0.8851501999     0.9176535583
H       1.3057379125     0.8848702281     0.9173249697
H       2.1485892299     0.0000227831     -0.3367438398
C       -1.2683134567     0.0000205635     0.2689166094
H       0.0000002342     -0.9891124787     -1.3151215110
H       0.0000000714     0.9896420555     -1.3157594490
H       -1.3056965326     -0.8851518127     0.9176547537
H       -2.1485904136     0.0000233805     -0.3367450673
H       -1.3057377660     0.8848718492     0.9173257970
--------------------------------------------------------------

             Standard Nuclear Orientation (Angstroms)
    I     Atom           X                Y                Z
 ----------------------------------------------------------------
    1      C       1.2683138239     0.0000203766     0.2689167978
    2      C       0.0000001430    -0.0000560791    -0.5623775999
    3      H       1.3056966934    -0.8851501999     0.9176535583
    4      H       1.3057379125     0.8848702281     0.9173249697
    5      H       2.1485892299     0.0000227831    -0.3367438398
    6      C      -1.2683134567     0.0000205635     0.2689166094
    7      H       0.0000002342    -0.9891124787    -1.3151215110
    8      H       0.0000000714     0.9896420555    -1.3157594490
    9      H      -1.3056965326    -0.8851518127     0.9176547537
   10      H      -2.1485904136     0.0000233805    -0.3367450673
   11      H      -1.3057377660     0.8848718492     0.9173257970
 ----------------------------------------------------------------

    7    -119.0827175947      4.66E-06 Convergence criterion met
    6    -119.1248576854      4.29E-06 Convergence criterion met
 Total energy in the final basis set = -119.12485769

                    Orbital Energies (a.u.)
 --------------------------------------------------------------

 Alpha MOs
 -- Occupied --
-10.3045 -10.2670 -10.2669  -0.8784  -0.7821  -0.6590  -0.5358  -0.5289
 -0.4853  -0.4647  -0.4273  -0.4104  -0.3897

                    Cartesian Multipole Moments
 -----------------------------------------------------------------
    Charge (ESU x 10^10)
                -0.0000
    Dipole Moment (Debye)
         X       0.0000      Y      -0.0003      Z       0.1314
       Tot       0.1314
    Quadrupole Moments (Debye-Ang)
        XX     -21.9866     XY      -0.0000     YY     -21.6020
        XZ       0.0000     YZ       0.0011     ZZ     -22.3428

 Total job time:  48.18s(wall), 134.29s(cpu)
        *  Thank you very much for using Q-Chem.  Have a nice day.  *
