 Q-Chem 5.2 (devel), Q-Chem, Inc., Pleasanton, CA (2019)
 Q-Chem 5.2.2 for Intel X86 EM64T Linux

User input:
--------------------------------------------------------------
$rem
   JOBTYPE  sp
   EXCHANGE   omegaB97X-D
   BASIS   6-311+G(2df,2pd)
   max_scf_cycles   250
   geom_opt_max_cycles   1500
   basis2 6-31G*
   scf_algorithm rca_diis
   SYM_IGNORE  TRUE
   print_input   true
   geom_opt_dmax   80
   pop_mulliken false
   XC_GRID 000075000302
$end

$molecule
0 1
C       1.2929859835     0.0011663415     0.2589603156
C       -0.0000000166     0.0006734429     -0.6205545049
H       1.3037389096     -0.8782870307     0.9065479508
H       1.3061856937     0.8783488865     0.9093465246
H       2.2184065040     -0.0011063478     -0.3184031219
C       -1.2929860953     0.0011663375     0.2589601736
H       0.0000002544     -0.8748127924     -1.2741240434
H       -0.0000000855     0.8738954611     -1.2771796932
H       -1.3037388603     -0.8782868504     0.9065480419
H       -2.2184067916     -0.0011057146     -0.3184029698
H       -1.3061855565     0.8783489323     0.9093463457
--------------------------------------------------------------

             Standard Nuclear Orientation (Angstroms)
    I     Atom           X                Y                Z
 ----------------------------------------------------------------
    1      C       1.2929859835     0.0011663415     0.2589603156
    2      C      -0.0000000166     0.0006734429    -0.6205545049
    3      H       1.3037389096    -0.8782870307     0.9065479508
    4      H       1.3061856937     0.8783488865     0.9093465246
    5      H       2.2184065040    -0.0011063478    -0.3184031219
    6      C      -1.2929860953     0.0011663375     0.2589601736
    7      H       0.0000002544    -0.8748127924    -1.2741240434
    8      H      -0.0000000855     0.8738954611    -1.2771796932
    9      H      -1.3037388603    -0.8782868504     0.9065480419
   10      H      -2.2184067916    -0.0011057146    -0.3184029698
   11      H      -1.3061855565     0.8783489323     0.9093463457
 ----------------------------------------------------------------

    7    -119.1015856983      4.70E-06 Convergence criterion met
    5    -119.1441760944      9.97E-06 Convergence criterion met
 Total energy in the final basis set = -119.14417609

                    Orbital Energies (a.u.)
 --------------------------------------------------------------

 Alpha MOs
 -- Occupied --
-10.2809 -10.2685 -10.2685  -0.8709  -0.7745  -0.6813  -0.5400  -0.5204
 -0.4765  -0.4629  -0.4196  -0.4166  -0.4116

                    Cartesian Multipole Moments
 -----------------------------------------------------------------
    Charge (ESU x 10^10)
                 0.0000
    Dipole Moment (Debye)
         X       0.0000      Y      -0.0025      Z      -0.0571
       Tot       0.0571
    Quadrupole Moments (Debye-Ang)
        XX     -21.9643     XY      -0.0000     YY     -21.4449
        XZ      -0.0000     YZ       0.0080     ZZ     -21.8806

 Total job time:  42.97s(wall), 119.26s(cpu)
        *  Thank you very much for using Q-Chem.  Have a nice day.  *
