 Q-Chem 5.2 (devel), Q-Chem, Inc., Pleasanton, CA (2019)
 Q-Chem 5.2.2 for Intel X86 EM64T Linux

User input:
--------------------------------------------------------------
$rem
   JOBTYPE  sp
   EXCHANGE   omegaB97X-D
   BASIS   6-311+G(2df,2pd)
   max_scf_cycles   250
   geom_opt_max_cycles   1500
   basis2 6-31G*
   scf_algorithm rca_diis
   SYM_IGNORE  TRUE
   print_input   true
   geom_opt_dmax   80
   pop_mulliken false
   XC_GRID 000075000302
$end

$molecule
0 1
C       1.4489911165     -0.0001810134     0.2629419419
C       -0.0000000632     0.0024613873     -0.2792611438
H       1.7318017176     -0.8851231405     0.8343868578
H       1.7359678817     0.8822921668     0.8366362756
H       2.0452254000     0.0038011599     -0.6534246948
C       -1.4489913535     -0.0001812620     0.2629415769
H       0.0000006936     -0.8511981454     -0.9652026104
H       -0.0000003274     0.8471584788     -0.9755718144
H       -1.7318019172     -0.8851230094     0.8343870819
H       -2.0452259788     0.0038020318     -0.6534246219
H       -1.7359672298     0.8822920121     0.8366361702
--------------------------------------------------------------

             Standard Nuclear Orientation (Angstroms)
    I     Atom           X                Y                Z
 ----------------------------------------------------------------
    1      C       1.4489911165    -0.0001810134     0.2629419419
    2      C      -0.0000000632     0.0024613873    -0.2792611438
    3      H       1.7318017176    -0.8851231405     0.8343868578
    4      H       1.7359678817     0.8822921668     0.8366362756
    5      H       2.0452254000     0.0038011599    -0.6534246948
    6      C      -1.4489913535    -0.0001812620     0.2629415769
    7      H       0.0000006936    -0.8511981454    -0.9652026104
    8      H      -0.0000003274     0.8471584788    -0.9755718144
    9      H      -1.7318019172    -0.8851230094     0.8343870819
   10      H      -2.0452259788     0.0038020318    -0.6534246219
   11      H      -1.7359672298     0.8822920121     0.8366361702
 ----------------------------------------------------------------

    7    -119.0796901765      4.11E-06 Convergence criterion met
    6    -119.1228371317      4.20E-06 Convergence criterion met
 Total energy in the final basis set = -119.12283713

                    Orbital Energies (a.u.)
 --------------------------------------------------------------

 Alpha MOs
 -- Occupied --
-10.2779 -10.2715 -10.2715  -0.8733  -0.7900  -0.6728  -0.5374  -0.5091
 -0.4978  -0.4739  -0.4284  -0.3993  -0.3954

                    Cartesian Multipole Moments
 -----------------------------------------------------------------
    Charge (ESU x 10^10)
                 0.0000
    Dipole Moment (Debye)
         X       0.0000      Y      -0.0024      Z      -0.2061
       Tot       0.2061
    Quadrupole Moments (Debye-Ang)
        XX     -21.8687     XY      -0.0000     YY     -21.4862
        XZ       0.0000     YZ      -0.0188     ZZ     -21.7622

 Total job time:  47.75s(wall), 132.82s(cpu)
        *  Thank you very much for using Q-Chem.  Have a nice day.  *
