 Q-Chem 5.2 (devel), Q-Chem, Inc., Pleasanton, CA (2019)
 Q-Chem 5.2.2 for Intel X86 EM64T Linux

User input:
--------------------------------------------------------------
$rem
   JOBTYPE  sp
   EXCHANGE   omegaB97X-D
   BASIS   6-311+G(2df,2pd)
   max_scf_cycles   250
   geom_opt_max_cycles   1500
   basis2 6-31G*
   scf_algorithm rca_diis
   SYM_IGNORE  TRUE
   print_input   true
   geom_opt_dmax   80
   pop_mulliken false
   XC_GRID 000075000302
$end

$molecule
0 1
C       1.2031476799     0.0252322251     0.3473956403
C       -0.0413453975     -0.0004251411     -0.5890103735
H       1.3384046826     -0.8922207164     0.9235763102
H       1.4196955457     0.8762711541     0.9934679986
H       1.9599670972     -0.0012273021     -0.4402128301
C       -1.3263239702     -0.0226910149     0.1658108761
H       0.1634676369     -0.8631458689     -1.2273842287
H       0.0453283557     0.8730475605     -1.2396176035
H       -1.2527715800     -0.8540448867     0.8699363886
H       -2.3298115732     -0.0024843572     -0.2549684962
H       -1.1797585379     0.8616890137     0.7920513372
--------------------------------------------------------------

             Standard Nuclear Orientation (Angstroms)
    I     Atom           X                Y                Z
 ----------------------------------------------------------------
    1      C       1.2031476799     0.0252322251     0.3473956403
    2      C      -0.0413453975    -0.0004251411    -0.5890103735
    3      H       1.3384046826    -0.8922207164     0.9235763102
    4      H       1.4196955457     0.8762711541     0.9934679986
    5      H       1.9599670972    -0.0012273021    -0.4402128301
    6      C      -1.3263239702    -0.0226910149     0.1658108761
    7      H       0.1634676369    -0.8631458689    -1.2273842287
    8      H       0.0453283557     0.8730475605    -1.2396176035
    9      H      -1.2527715800    -0.8540448867     0.8699363886
   10      H      -2.3298115732    -0.0024843572    -0.2549684962
   11      H      -1.1797585379     0.8616890137     0.7920513372
 ----------------------------------------------------------------

    7    -119.0834818146      4.75E-06 Convergence criterion met
    6    -119.1270846309      4.17E-06 Convergence criterion met
 Total energy in the final basis set = -119.12708463

                    Orbital Energies (a.u.)
 --------------------------------------------------------------

 Alpha MOs
 -- Occupied --
-10.2781 -10.2679 -10.2628  -0.8860  -0.7796  -0.6784  -0.5475  -0.5308
 -0.4854  -0.4626  -0.4178  -0.4091  -0.4041

                    Cartesian Multipole Moments
 -----------------------------------------------------------------
    Charge (ESU x 10^10)
                 0.0000
    Dipole Moment (Debye)
         X       0.0924      Y       0.0139      Z      -0.0792
       Tot       0.1225
    Quadrupole Moments (Debye-Ang)
        XX     -22.0857     XY       0.0113     YY     -21.4792
        XZ       0.0799     YZ      -0.0242     ZZ     -21.9196

 Total job time:  49.38s(wall), 137.45s(cpu)
        *  Thank you very much for using Q-Chem.  Have a nice day.  *
