 Q-Chem 5.2 (devel), Q-Chem, Inc., Pleasanton, CA (2019)
 Q-Chem 5.2.2 for Intel X86 EM64T Linux

User input:
--------------------------------------------------------------
$rem
   JOBTYPE  sp
   EXCHANGE   omegaB97X-D
   BASIS   6-311+G(2df,2pd)
   max_scf_cycles   250
   geom_opt_max_cycles   1500
   basis2 6-31G*
   scf_algorithm rca_diis
   SYM_IGNORE  TRUE
   print_input   true
   geom_opt_dmax   80
   pop_mulliken false
   XC_GRID 000075000302
$end

$molecule
0 1
C       1.2649743628     0.0233289834     0.2649838071
C       -0.0000000394     -0.0289237206     -0.5921704395
H       1.2841446214     -0.8678787742     0.8971742124
H       1.3486919079     0.8893268560     0.9230452097
H       2.1492564526     -0.0248082959     -0.3715160879
C       -1.2649744402     0.0233290633     0.2649837945
H       -0.0000001813     -0.8794643367     -1.2778890590
H       0.0000001488     0.8684507019     -1.2162697106
H       -1.2841446774     -0.8678787024     0.8971741648
H       -2.1492565065     -0.0248079991     -0.3715161426
H       -1.3486917094     0.8893268903     0.9230452700
--------------------------------------------------------------

             Standard Nuclear Orientation (Angstroms)
    I     Atom           X                Y                Z
 ----------------------------------------------------------------
    1      C       1.2649743628     0.0233289834     0.2649838071
    2      C      -0.0000000394    -0.0289237206    -0.5921704395
    3      H       1.2841446214    -0.8678787742     0.8971742124
    4      H       1.3486919079     0.8893268560     0.9230452097
    5      H       2.1492564526    -0.0248082959    -0.3715160879
    6      C      -1.2649744402     0.0233290633     0.2649837945
    7      H      -0.0000001813    -0.8794643367    -1.2778890590
    8      H       0.0000001488     0.8684507019    -1.2162697106
    9      H      -1.2841446774    -0.8678787024     0.8971741648
   10      H      -2.1492565065    -0.0248079991    -0.3715161426
   11      H      -1.3486917094     0.8893268903     0.9230452700
 ----------------------------------------------------------------

    7    -119.1003835132      4.68E-06 Convergence criterion met
    5    -119.1433253381      9.79E-06 Convergence criterion met
 Total energy in the final basis set = -119.14332534

                    Orbital Energies (a.u.)
 --------------------------------------------------------------

 Alpha MOs
 -- Occupied --
-10.2756 -10.2650 -10.2649  -0.8802  -0.7766  -0.6783  -0.5446  -0.5224
 -0.4862  -0.4615  -0.4268  -0.4132  -0.4019

                    Cartesian Multipole Moments
 -----------------------------------------------------------------
    Charge (ESU x 10^10)
                 0.0000
    Dipole Moment (Debye)
         X       0.0000      Y      -0.0037      Z      -0.0912
       Tot       0.0913
    Quadrupole Moments (Debye-Ang)
        XX     -22.2950     XY       0.0000     YY     -21.3695
        XZ       0.0000     YZ       0.3296     ZZ     -21.7337

 Total job time:  44.12s(wall), 122.51s(cpu)
        *  Thank you very much for using Q-Chem.  Have a nice day.  *
