 Q-Chem 5.2 (devel), Q-Chem, Inc., Pleasanton, CA (2019)
 Q-Chem 5.2.2 for Intel X86 EM64T Linux

User input:
--------------------------------------------------------------
$rem
   JOBTYPE  sp
   EXCHANGE   omegaB97X-D
   BASIS   6-311+G(2df,2pd)
   max_scf_cycles   250
   geom_opt_max_cycles   1500
   basis2 6-31G*
   scf_algorithm rca_diis
   SYM_IGNORE  TRUE
   print_input   true
   geom_opt_dmax   80
   pop_mulliken false
   XC_GRID 000075000302
$end

$molecule
0 1
C       1.2896282611     0.0000119344     0.2743612786
C       0.0188165439     -0.0000003353     -0.5873579309
H       1.3147935898     -0.7718665482     0.8350299342
H       1.3147818906     0.7718389854     0.8350024296
H       2.0917524700     0.0000010629     -0.2801878528
C       -1.2446339503     -0.0000129333     0.2444276750
H       0.0241034318     -0.8738713861     -1.2431579185
H       0.0240855944     0.8738707363     -1.2431576036
H       -1.2979535644     -0.9888396451     0.9729961496
H       -2.2374049632     0.0000013293     -0.4399349812
H       -1.2979693643     0.9888674655     0.9730238389
--------------------------------------------------------------

             Standard Nuclear Orientation (Angstroms)
    I     Atom           X                Y                Z
 ----------------------------------------------------------------
    1      C       1.2896282611     0.0000119344     0.2743612786
    2      C       0.0188165439    -0.0000003353    -0.5873579309
    3      H       1.3147935898    -0.7718665482     0.8350299342
    4      H       1.3147818906     0.7718389854     0.8350024296
    5      H       2.0917524700     0.0000010629    -0.2801878528
    6      C      -1.2446339503    -0.0000129333     0.2444276750
    7      H       0.0241034318    -0.8738713861    -1.2431579185
    8      H       0.0240855944     0.8738707363    -1.2431576036
    9      H      -1.2979535644    -0.9888396451     0.9729961496
   10      H      -2.2374049632     0.0000013293    -0.4399349812
   11      H      -1.2979693643     0.9888674655     0.9730238389
 ----------------------------------------------------------------

    7    -119.0357642743      5.86E-06 Convergence criterion met
    6    -119.0811920958      4.06E-06 Convergence criterion met
 Total energy in the final basis set = -119.08119210

                    Orbital Energies (a.u.)
 --------------------------------------------------------------

 Alpha MOs
 -- Occupied --
-10.3039 -10.2753 -10.2217  -0.8875  -0.7854  -0.6725  -0.5517  -0.5302
 -0.4823  -0.4679  -0.4285  -0.4062  -0.4023

                    Cartesian Multipole Moments
 -----------------------------------------------------------------
    Charge (ESU x 10^10)
                 0.0000
    Dipole Moment (Debye)
         X       0.2931      Y      -0.0000      Z      -0.1170
       Tot       0.3156
    Quadrupole Moments (Debye-Ang)
        XX     -22.1447     XY       0.0000     YY     -21.3501
        XZ       0.2936     YZ      -0.0000     ZZ     -21.8016

 Total job time:  49.20s(wall), 137.05s(cpu)
        *  Thank you very much for using Q-Chem.  Have a nice day.  *
