 Q-Chem 5.2 (devel), Q-Chem, Inc., Pleasanton, CA (2019)
 Q-Chem 5.2.2 for Intel X86 EM64T Linux

User input:
--------------------------------------------------------------
$rem
   JOBTYPE  sp
   EXCHANGE   omegaB97X-D
   BASIS   6-311+G(2df,2pd)
   max_scf_cycles   250
   geom_opt_max_cycles   1500
   basis2 6-31G*
   scf_algorithm rca_diis
   SYM_IGNORE  TRUE
   print_input   true
   geom_opt_dmax   80
   pop_mulliken false
   XC_GRID 000075000302
$end

$molecule
0 1
C       1.2653511662     -0.0059281539     0.2540579394
C       0.0000000852     -0.0067526277     -0.6044733415
H       1.2907078516     -0.8983877728     0.8808972287
H       1.3265230171     0.8926252818     0.8714560848
H       2.1720809538     0.0201486683     -0.3532829289
C       -1.2653509873     -0.0059287431     0.2540580624
H       0.0000004143     -0.9305683360     -1.1833616156
H       -0.0000005333     0.9204024580     -1.1773761853
H       -1.2907049593     -0.8983882529     0.8808973606
H       -2.1720810840     0.0201525030     -0.3532822442
H       -1.3265259850     0.8926256410     0.8714546586
--------------------------------------------------------------

             Standard Nuclear Orientation (Angstroms)
    I     Atom           X                Y                Z
 ----------------------------------------------------------------
    1      C       1.2653511662    -0.0059281539     0.2540579394
    2      C       0.0000000852    -0.0067526277    -0.6044733415
    3      H       1.2907078516    -0.8983877728     0.8808972287
    4      H       1.3265230171     0.8926252818     0.8714560848
    5      H       2.1720809538     0.0201486683    -0.3532829289
    6      C      -1.2653509873    -0.0059287431     0.2540580624
    7      H       0.0000004143    -0.9305683360    -1.1833616156
    8      H      -0.0000005333     0.9204024580    -1.1773761853
    9      H      -1.2907049593    -0.8983882529     0.8808973606
   10      H      -2.1720810840     0.0201525030    -0.3532822442
   11      H      -1.3265259850     0.8926256410     0.8714546586
 ----------------------------------------------------------------

    7    -119.0996400107      4.96E-06 Convergence criterion met
    5    -119.1426725167      9.56E-06 Convergence criterion met
 Total energy in the final basis set = -119.14267252

                    Orbital Energies (a.u.)
 --------------------------------------------------------------

 Alpha MOs
 -- Occupied --
-10.2751 -10.2644 -10.2644  -0.8816  -0.7765  -0.6743  -0.5570  -0.5191
 -0.4769  -0.4686  -0.4175  -0.4169  -0.4059

                    Cartesian Multipole Moments
 -----------------------------------------------------------------
    Charge (ESU x 10^10)
                -0.0000
    Dipole Moment (Debye)
         X      -0.0000      Y       0.0309      Z      -0.0734
       Tot       0.0796
    Quadrupole Moments (Debye-Ang)
        XX     -22.2153     XY      -0.0000     YY     -20.9587
        XZ      -0.0000     YZ      -0.0508     ZZ     -22.3381

 Total job time:  44.12s(wall), 122.28s(cpu)
        *  Thank you very much for using Q-Chem.  Have a nice day.  *
