 Q-Chem 5.2 (devel), Q-Chem, Inc., Pleasanton, CA (2019)
 Q-Chem 5.2.2 for Intel X86 EM64T Linux

User input:
--------------------------------------------------------------
$rem
   JOBTYPE  sp
   EXCHANGE   omegaB97X-D
   BASIS   6-311+G(2df,2pd)
   max_scf_cycles   250
   geom_opt_max_cycles   1500
   basis2 6-31G*
   scf_algorithm rca_diis
   SYM_IGNORE  TRUE
   print_input   true
   geom_opt_dmax   80
   pop_mulliken false
   XC_GRID 000075000302
$end

$molecule
0 1
C       1.2432541063     0.0954070003     0.2646139126
C       -0.0000000396     0.1700449652     -0.6090107951
H       1.0917126540     -0.8917791585     0.7123129168
H       1.4515345701     0.8170300702     1.0525318894
H       2.1327977738     -0.0336663516     -0.3537575152
C       -1.2432543615     0.0954071901     0.2646135829
H       -0.0000000885     -0.8947178006     -0.8718616846
H       0.0000001908     0.7506896248     -1.5294846117
H       -1.0917122845     -0.8917787844     0.7123128882
H       -2.1327982323     -0.0336660034     -0.3537575614
H       -1.4515343493     0.8170299138     1.0525319971
--------------------------------------------------------------

             Standard Nuclear Orientation (Angstroms)
    I     Atom           X                Y                Z
 ----------------------------------------------------------------
    1      C       1.2432541063     0.0954070003     0.2646139126
    2      C      -0.0000000396     0.1700449652    -0.6090107951
    3      H       1.0917126540    -0.8917791585     0.7123129168
    4      H       1.4515345701     0.8170300702     1.0525318894
    5      H       2.1327977738    -0.0336663516    -0.3537575152
    6      C      -1.2432543615     0.0954071901     0.2646135829
    7      H      -0.0000000885    -0.8947178006    -0.8718616846
    8      H       0.0000001908     0.7506896248    -1.5294846117
    9      H      -1.0917122845    -0.8917787844     0.7123128882
   10      H      -2.1327982323    -0.0336660034    -0.3537575614
   11      H      -1.4515343493     0.8170299138     1.0525319971
 ----------------------------------------------------------------

    7    -119.0708721472      5.14E-06 Convergence criterion met
    6    -119.1150777091      3.64E-06 Convergence criterion met
 Total energy in the final basis set = -119.11507771

                    Orbital Energies (a.u.)
 --------------------------------------------------------------

 Alpha MOs
 -- Occupied --
-10.2762 -10.2665 -10.2665  -0.8928  -0.7777  -0.6754  -0.5599  -0.5213
 -0.4926  -0.4523  -0.4261  -0.4124  -0.3930

                    Cartesian Multipole Moments
 -----------------------------------------------------------------
    Charge (ESU x 10^10)
                -0.0000
    Dipole Moment (Debye)
         X       0.0000      Y      -0.2279      Z      -0.1207
       Tot       0.2579
    Quadrupole Moments (Debye-Ang)
        XX     -22.3069     XY      -0.0000     YY     -21.5561
        XZ       0.0000     YZ       0.1434     ZZ     -21.7631

 Total job time:  49.07s(wall), 136.96s(cpu)
        *  Thank you very much for using Q-Chem.  Have a nice day.  *
