 Q-Chem 5.2 (devel), Q-Chem, Inc., Pleasanton, CA (2019)
 Q-Chem 5.2.2 for Intel X86 EM64T Linux

User input:
--------------------------------------------------------------
$rem
   JOBTYPE  sp
   EXCHANGE   omegaB97X-D
   BASIS   6-311+G(2df,2pd)
   max_scf_cycles   250
   geom_opt_max_cycles   1500
   basis2 6-31G*
   scf_algorithm rca_diis
   SYM_IGNORE  TRUE
   print_input   true
   geom_opt_dmax   80
   pop_mulliken false
   XC_GRID 000075000302
$end

$molecule
0 1
C       1.2409691772     -0.0011757735     0.2601963087
C       0.0000000151     -0.0007176294     -0.5541944717
H       1.3061216657     -0.8827917793     0.9004584923
H       1.3034947524     0.8827629948     0.8977446459
H       2.1084960424     0.0011438539     -0.4000156341
C       -1.2409690739     -0.0011756569     0.2601964472
H       -0.0000001850     -0.8729503222     -1.2122934228
H       -0.0000001114     0.8737892321     -1.2092347790
H       -1.3061216515     -0.8827917695     0.9004584450
H       -2.1084957388     0.0011443892     -0.4000157702
H       -1.3034949528     0.8827631269     0.8977447573
--------------------------------------------------------------

             Standard Nuclear Orientation (Angstroms)
    I     Atom           X                Y                Z
 ----------------------------------------------------------------
    1      C       1.2409691772    -0.0011757735     0.2601963087
    2      C       0.0000000151    -0.0007176294    -0.5541944717
    3      H       1.3061216657    -0.8827917793     0.9004584923
    4      H       1.3034947524     0.8827629948     0.8977446459
    5      H       2.1084960424     0.0011438539    -0.4000156341
    6      C      -1.2409690739    -0.0011756569     0.2601964472
    7      H      -0.0000001850    -0.8729503222    -1.2122934228
    8      H      -0.0000001114     0.8737892321    -1.2092347790
    9      H      -1.3061216515    -0.8827917695     0.9004584450
   10      H      -2.1084957388     0.0011443892    -0.4000157702
   11      H      -1.3034949528     0.8827631269     0.8977447573
 ----------------------------------------------------------------

    7    -119.1005088343      4.55E-06 Convergence criterion met
    6    -119.1439219874      3.63E-06 Convergence criterion met
 Total energy in the final basis set = -119.14392199

                    Orbital Energies (a.u.)
 --------------------------------------------------------------

 Alpha MOs
 -- Occupied --
-10.2674 -10.2614 -10.2614  -0.8923  -0.7803  -0.6741  -0.5520  -0.5286
 -0.4895  -0.4643  -0.4183  -0.4168  -0.4034

                    Cartesian Multipole Moments
 -----------------------------------------------------------------
    Charge (ESU x 10^10)
                -0.0000
    Dipole Moment (Debye)
         X      -0.0000      Y       0.0021      Z      -0.1134
       Tot       0.1134
    Quadrupole Moments (Debye-Ang)
        XX     -22.3756     XY      -0.0000     YY     -21.2813
        XZ       0.0000     YZ      -0.0084     ZZ     -21.7957

 Total job time:  48.78s(wall), 135.94s(cpu)
        *  Thank you very much for using Q-Chem.  Have a nice day.  *
