 Q-Chem 5.2 (devel), Q-Chem, Inc., Pleasanton, CA (2019)
 Q-Chem 5.2.2 for Intel X86 EM64T Linux

User input:
--------------------------------------------------------------
$rem
   JOBTYPE  sp
   EXCHANGE   omegaB97X-D
   BASIS   6-311+G(2df,2pd)
   max_scf_cycles   250
   geom_opt_max_cycles   1500
   basis2 6-31G*
   scf_algorithm rca_diis
   SYM_IGNORE  TRUE
   print_input   true
   geom_opt_dmax   80
   pop_mulliken false
   XC_GRID 000075000302
$end

$molecule
0 1
C       1.1916162663     0.0000850205     0.2593906142
C       0.0000000231     -0.0011367869     -0.6783679640
H       1.1425493372     -0.8779199612     0.9072457466
H       1.1408571633     0.8786753003     0.9061697879
H       2.1617466607     -0.0006805442     -0.2365258742
C       -1.1916161466     0.0000851009     0.2593907204
H       -0.0000001901     -0.8781691515     -1.3285544974
H       0.0000000139     0.8789862763     -1.3245931712
H       -1.1425493166     -0.8779200138     0.9072456522
H       -2.1617465111     -0.0006799574     -0.2365259564
H       -1.1408573606     0.8786753830     0.9061699610
--------------------------------------------------------------

             Standard Nuclear Orientation (Angstroms)
    I     Atom           X                Y                Z
 ----------------------------------------------------------------
    1      C       1.1916162663     0.0000850205     0.2593906142
    2      C       0.0000000231    -0.0011367869    -0.6783679640
    3      H       1.1425493372    -0.8779199612     0.9072457466
    4      H       1.1408571633     0.8786753003     0.9061697879
    5      H       2.1617466607    -0.0006805442    -0.2365258742
    6      C      -1.1916161466     0.0000851009     0.2593907204
    7      H      -0.0000001901    -0.8781691515    -1.3285544974
    8      H       0.0000000139     0.8789862763    -1.3245931712
    9      H      -1.1425493166    -0.8779200138     0.9072456522
   10      H      -2.1617465111    -0.0006799574    -0.2365259564
   11      H      -1.1408573606     0.8786753830     0.9061699610
 ----------------------------------------------------------------

    7    -119.0988760671      4.82E-06 Convergence criterion met
    5    -119.1420041598      8.72E-06 Convergence criterion met
 Total energy in the final basis set = -119.14200416

                    Orbital Energies (a.u.)
 --------------------------------------------------------------

 Alpha MOs
 -- Occupied --
-10.2737 -10.2638 -10.2638  -0.8890  -0.7698  -0.6817  -0.5511  -0.5315
 -0.4741  -0.4561  -0.4273  -0.4124  -0.4116

                    Cartesian Multipole Moments
 -----------------------------------------------------------------
    Charge (ESU x 10^10)
                -0.0000
    Dipole Moment (Debye)
         X      -0.0000      Y       0.0000      Z      -0.0627
       Tot       0.0627
    Quadrupole Moments (Debye-Ang)
        XX     -22.3470     XY      -0.0000     YY     -21.3165
        XZ      -0.0000     YZ       0.0059     ZZ     -21.8416

 Total job time:  45.21s(wall), 124.87s(cpu)
        *  Thank you very much for using Q-Chem.  Have a nice day.  *
