 Q-Chem 5.2 (devel), Q-Chem, Inc., Pleasanton, CA (2019)
 Q-Chem 5.2.2 for Intel X86 EM64T Linux

User input:
--------------------------------------------------------------
$rem
   JOBTYPE  sp
   EXCHANGE   omegaB97X-D
   BASIS   6-311+G(2df,2pd)
   max_scf_cycles   250
   geom_opt_max_cycles   1500
   basis2 6-31G*
   scf_algorithm rca_diis
   SYM_IGNORE  TRUE
   print_input   true
   geom_opt_dmax   80
   pop_mulliken false
   XC_GRID 000075000302
$end

$molecule
0 1
C       1.2738312841     0.0160126942     0.2119204100
C       -0.0000000463     -0.0151681158     -0.5601576487
H       1.1977665630     -0.8553812386     0.8689325839
H       1.2334316343     0.8701154416     0.8913317589
H       2.2315171687     -0.0200119011     -0.3026246594
C       -1.2738312413     0.0160127644     0.2119203462
H       0.0000002589     -0.8735651158     -1.2342578425
H       -0.0000002150     0.8672629832     -1.2036596116
H       -1.1977666289     -0.8553811417     0.8689325617
H       -2.2315172829     -0.0200112907     -0.3026245237
H       -1.2334315551     0.8701155861     0.8913316441
--------------------------------------------------------------

             Standard Nuclear Orientation (Angstroms)
    I     Atom           X                Y                Z
 ----------------------------------------------------------------
    1      C       1.2738312841     0.0160126942     0.2119204100
    2      C      -0.0000000463    -0.0151681158    -0.5601576487
    3      H       1.1977665630    -0.8553812386     0.8689325839
    4      H       1.2334316343     0.8701154416     0.8913317589
    5      H       2.2315171687    -0.0200119011    -0.3026246594
    6      C      -1.2738312413     0.0160127644     0.2119203462
    7      H       0.0000002589    -0.8735651158    -1.2342578425
    8      H      -0.0000002150     0.8672629832    -1.2036596116
    9      H      -1.1977666289    -0.8553811417     0.8689325617
   10      H      -2.2315172829    -0.0200112907    -0.3026245237
   11      H      -1.2334315551     0.8701155861     0.8913316441
 ----------------------------------------------------------------

    7    -119.0911426176      4.55E-06 Convergence criterion met
    6    -119.1349309954      4.15E-06 Convergence criterion met
 Total energy in the final basis set = -119.13493100

                    Orbital Energies (a.u.)
 --------------------------------------------------------------

 Alpha MOs
 -- Occupied --
-10.2686 -10.2653 -10.2653  -0.8932  -0.7824  -0.6754  -0.5522  -0.5388
 -0.4791  -0.4577  -0.4486  -0.4073  -0.3916

                    Cartesian Multipole Moments
 -----------------------------------------------------------------
    Charge (ESU x 10^10)
                 0.0000
    Dipole Moment (Debye)
         X      -0.0000      Y      -0.0134      Z      -0.0483
       Tot       0.0501
    Quadrupole Moments (Debye-Ang)
        XX     -21.4814     XY      -0.0000     YY     -21.6092
        XZ      -0.0000     YZ       0.2176     ZZ     -22.3224

 Total job time:  48.87s(wall), 136.53s(cpu)
        *  Thank you very much for using Q-Chem.  Have a nice day.  *
