 Q-Chem 5.2 (devel), Q-Chem, Inc., Pleasanton, CA (2019)
 Q-Chem 5.2.2 for Intel X86 EM64T Linux

User input:
--------------------------------------------------------------
$rem
   JOBTYPE  sp
   EXCHANGE   omegaB97X-D
   BASIS   6-311+G(2df,2pd)
   max_scf_cycles   250
   geom_opt_max_cycles   1500
   basis2 6-31G*
   scf_algorithm rca_diis
   SYM_IGNORE  TRUE
   print_input   true
   geom_opt_dmax   80
   pop_mulliken false
   XC_GRID 000075000302
$end

$molecule
0 1
C       1.0223947241     0.0002420054     0.2625369223
C       0.0000000699     -0.0035916294     -0.8363869077
H       0.7999849093     -0.8704409631     0.8847462469
H       0.7951032552     0.8722163524     0.8806884486
H       2.0863789207     -0.0014222660     0.0368047161
C       -1.0223943241     0.0002421901     0.2625371965
H       -0.0000005511     -0.8816771392     -1.4823292633
H       0.0000001898     0.8840787193     -1.4697918674
H       -0.7999849719     -0.8704412918     0.8847459330
H       -2.0863785798     -0.0014218105     0.0368044163
H       -0.7951037029     0.8722164988     0.8806891777
--------------------------------------------------------------

             Standard Nuclear Orientation (Angstroms)
    I     Atom           X                Y                Z
 ----------------------------------------------------------------
    1      C       1.0223947241     0.0002420054     0.2625369223
    2      C       0.0000000699    -0.0035916294    -0.8363869077
    3      H       0.7999849093    -0.8704409631     0.8847462469
    4      H       0.7951032552     0.8722163524     0.8806884486
    5      H       2.0863789207    -0.0014222660     0.0368047161
    6      C      -1.0223943241     0.0002421901     0.2625371965
    7      H      -0.0000005511    -0.8816771392    -1.4823292633
    8      H       0.0000001898     0.8840787193    -1.4697918674
    9      H      -0.7999849719    -0.8704412918     0.8847459330
   10      H      -2.0863785798    -0.0014218105     0.0368044163
   11      H      -0.7951037029     0.8722164988     0.8806891777
 ----------------------------------------------------------------

    7    -119.0409603107      3.21E-06 Convergence criterion met
    5    -119.0869256201      6.70E-06 Convergence criterion met
 Total energy in the final basis set = -119.08692562

                    Orbital Energies (a.u.)
 --------------------------------------------------------------

 Alpha MOs
 -- Occupied --
-10.2738 -10.2617 -10.2617  -0.9223  -0.7445  -0.6997  -0.5754  -0.5473
 -0.4587  -0.4439  -0.4318  -0.4238  -0.3826

                    Cartesian Multipole Moments
 -----------------------------------------------------------------
    Charge (ESU x 10^10)
                -0.0000
    Dipole Moment (Debye)
         X      -0.0000      Y      -0.0004      Z       0.0261
       Tot       0.0261
    Quadrupole Moments (Debye-Ang)
        XX     -23.4360     XY      -0.0000     YY     -21.0707
        XZ       0.0000     YZ       0.0170     ZZ     -21.4392

 Total job time:  46.07s(wall), 127.43s(cpu)
        *  Thank you very much for using Q-Chem.  Have a nice day.  *
