 Q-Chem 5.2 (devel), Q-Chem, Inc., Pleasanton, CA (2019)
 Q-Chem 5.2.2 for Intel X86 EM64T Linux

User input:
--------------------------------------------------------------
$rem
   JOBTYPE  sp
   EXCHANGE   omegaB97X-D
   BASIS   6-311+G(2df,2pd)
   max_scf_cycles   250
   geom_opt_max_cycles   1500
   basis2 6-31G*
   scf_algorithm rca_diis
   SYM_IGNORE  TRUE
   print_input   true
   geom_opt_dmax   80
   pop_mulliken false
   XC_GRID 000075000302
$end

$molecule
0 1
C       1.2669950908     0.0067505241     0.2588191475
C       0.0000000627     -0.0422130809     -0.5869196194
H       1.3068893890     -0.9269767829     0.9613631371
H       1.3036596201     0.8340003870     0.8463724788
H       2.1634871610     -0.0115180108     -0.3597774809
C       -1.2669948998     0.0067501189     0.2588191758
H       0.0000001545     -0.7537165045     -1.1144589843
H       -0.0000001579     0.9914164344     -1.3711309103
H       -1.3068889406     -0.9269760592     0.9613625443
H       -2.1634878355     -0.0115179410     -0.3597780090
H       -1.3036597047     0.8340015809     0.8463735394
--------------------------------------------------------------

             Standard Nuclear Orientation (Angstroms)
    I     Atom           X                Y                Z
 ----------------------------------------------------------------
    1      C       1.2669950908     0.0067505241     0.2588191475
    2      C       0.0000000627    -0.0422130809    -0.5869196194
    3      H       1.3068893890    -0.9269767829     0.9613631371
    4      H       1.3036596201     0.8340003870     0.8463724788
    5      H       2.1634871610    -0.0115180108    -0.3597774809
    6      C      -1.2669948998     0.0067501189     0.2588191758
    7      H       0.0000001545    -0.7537165045    -1.1144589843
    8      H      -0.0000001579     0.9914164344    -1.3711309103
    9      H      -1.3068889406    -0.9269760592     0.9613625443
   10      H      -2.1634878355    -0.0115179410    -0.3597780090
   11      H      -1.3036597047     0.8340015809     0.8463735394
 ----------------------------------------------------------------

    7    -119.0308003179      5.89E-06 Convergence criterion met
    6    -119.0767754567      4.20E-06 Convergence criterion met
 Total energy in the final basis set = -119.07677546

                    Orbital Energies (a.u.)
 --------------------------------------------------------------

 Alpha MOs
 -- Occupied --
-10.2719 -10.2660 -10.2659  -0.8877  -0.7802  -0.6960  -0.5444  -0.5217
 -0.4931  -0.4560  -0.4412  -0.4206  -0.3879

                    Cartesian Multipole Moments
 -----------------------------------------------------------------
    Charge (ESU x 10^10)
                -0.0000
    Dipole Moment (Debye)
         X       0.0000      Y      -0.0673      Z      -0.0053
       Tot       0.0675
    Quadrupole Moments (Debye-Ang)
        XX     -22.0486     XY       0.0000     YY     -21.3939
        XZ      -0.0000     YZ       0.3794     ZZ     -22.0129

 Total job time:  48.83s(wall), 136.30s(cpu)
        *  Thank you very much for using Q-Chem.  Have a nice day.  *
