 Q-Chem 5.2 (devel), Q-Chem, Inc., Pleasanton, CA (2019)
 Q-Chem 5.2.2 for Intel X86 EM64T Linux

User input:
--------------------------------------------------------------
$rem
   JOBTYPE  sp
   EXCHANGE   omegaB97X-D
   BASIS   6-311+G(2df,2pd)
   max_scf_cycles   250
   geom_opt_max_cycles   1500
   basis2 6-31G*
   scf_algorithm rca_diis
   SYM_IGNORE  TRUE
   print_input   true
   geom_opt_dmax   80
   pop_mulliken false
   XC_GRID 000075000302
$end

$molecule
0 1
C       1.2648044882     0.0246149628     0.2607046796
C       -0.0000000087     0.0438764939     -0.5881509640
H       1.2575497068     -0.8896327463     0.8587962357
H       1.3503060346     0.8702665044     0.9447558310
H       2.1610227052     -0.0075775722     -0.3599248754
C       -1.2648045492     0.0246150537     0.2607045923
H       0.0000000159     -0.8903719017     -1.1566590076
H       -0.0000000264     0.8511529753     -1.3228086808
H       -1.2575495967     -0.8896325968     0.8587962357
H       -2.1610228307     -0.0075770315     -0.3599248869
H       -1.3503059995     0.8702665243     0.9447558593
--------------------------------------------------------------

             Standard Nuclear Orientation (Angstroms)
    I     Atom           X                Y                Z
 ----------------------------------------------------------------
    1      C       1.2648044882     0.0246149628     0.2607046796
    2      C      -0.0000000087     0.0438764939    -0.5881509640
    3      H       1.2575497068    -0.8896327463     0.8587962357
    4      H       1.3503060346     0.8702665044     0.9447558310
    5      H       2.1610227052    -0.0075775722    -0.3599248754
    6      C      -1.2648045492     0.0246150537     0.2607045923
    7      H       0.0000000159    -0.8903719017    -1.1566590076
    8      H      -0.0000000264     0.8511529753    -1.3228086808
    9      H      -1.2575495967    -0.8896325968     0.8587962357
   10      H      -2.1610228307    -0.0075770315    -0.3599248869
   11      H      -1.3503059995     0.8702665243     0.9447558593
 ----------------------------------------------------------------

    7    -119.1013384530      4.53E-06 Convergence criterion met
    6    -119.1443102986      3.84E-06 Convergence criterion met
 Total energy in the final basis set = -119.14431030

                    Orbital Energies (a.u.)
 --------------------------------------------------------------

 Alpha MOs
 -- Occupied --
-10.2741 -10.2651 -10.2651  -0.8820  -0.7772  -0.6775  -0.5469  -0.5238
 -0.4834  -0.4630  -0.4184  -0.4179  -0.4067

                    Cartesian Multipole Moments
 -----------------------------------------------------------------
    Charge (ESU x 10^10)
                -0.0000
    Dipole Moment (Debye)
         X       0.0000      Y      -0.0590      Z      -0.0896
       Tot       0.1073
    Quadrupole Moments (Debye-Ang)
        XX     -22.1847     XY      -0.0000     YY     -21.3614
        XZ       0.0000     YZ       0.0351     ZZ     -21.8428

 Total job time:  48.85s(wall), 135.90s(cpu)
        *  Thank you very much for using Q-Chem.  Have a nice day.  *
