 Q-Chem 5.2 (devel), Q-Chem, Inc., Pleasanton, CA (2019)
 Q-Chem 5.2.2 for Intel X86 EM64T Linux

User input:
--------------------------------------------------------------
$rem
   JOBTYPE  sp
   EXCHANGE   omegaB97X-D
   BASIS   6-311+G(2df,2pd)
   max_scf_cycles   250
   geom_opt_max_cycles   1500
   basis2 6-31G*
   scf_algorithm rca_diis
   SYM_IGNORE  TRUE
   print_input   true
   geom_opt_dmax   80
   pop_mulliken false
   XC_GRID 000075000302
$end

$molecule
0 1
C       1.2598881200     0.0489286967     0.2619887901
C       -0.0000000182     0.0872064734     -0.5923011844
H       1.2053553802     -0.8944360150     0.8116645311
H       1.3897816257     0.8559897943     0.9833294434
H       2.1544659448     -0.0154883169     -0.3587427603
C       -1.2598882436     0.0489288220     0.2619886183
H       -0.0000000125     -0.8998050103     -1.0656838628
H       0.0000000462     0.8226101030     -1.3974497983
H       -1.2053551864     -0.8944357987     0.8116645128
H       -2.1544661895     -0.0154878298     -0.3587427831
H       -1.3897815273     0.8559897474     0.9833295122
--------------------------------------------------------------

             Standard Nuclear Orientation (Angstroms)
    I     Atom           X                Y                Z
 ----------------------------------------------------------------
    1      C       1.2598881200     0.0489286967     0.2619887901
    2      C      -0.0000000182     0.0872064734    -0.5923011844
    3      H       1.2053553802    -0.8944360150     0.8116645311
    4      H       1.3897816257     0.8559897943     0.9833294434
    5      H       2.1544659448    -0.0154883169    -0.3587427603
    6      C      -1.2598882436     0.0489288220     0.2619886183
    7      H      -0.0000000125    -0.8998050103    -1.0656838628
    8      H       0.0000000462     0.8226101030    -1.3974497983
    9      H      -1.2053551864    -0.8944357987     0.8116645128
   10      H      -2.1544661895    -0.0154878298    -0.3587427831
   11      H      -1.3897815273     0.8559897474     0.9833295122
 ----------------------------------------------------------------

    7    -119.0957325705      4.61E-06 Convergence criterion met
    6    -119.1388909793      3.79E-06 Convergence criterion met
 Total energy in the final basis set = -119.13889098

                    Orbital Energies (a.u.)
 --------------------------------------------------------------

 Alpha MOs
 -- Occupied --
-10.2745 -10.2653 -10.2653  -0.8841  -0.7773  -0.6770  -0.5498  -0.5229
 -0.4857  -0.4605  -0.4203  -0.4165  -0.4039

                    Cartesian Multipole Moments
 -----------------------------------------------------------------
    Charge (ESU x 10^10)
                -0.0000
    Dipole Moment (Debye)
         X       0.0000      Y      -0.1162      Z      -0.0963
       Tot       0.1509
    Quadrupole Moments (Debye-Ang)
        XX     -22.2142     XY      -0.0000     YY     -21.3930
        XZ       0.0000     YZ       0.0708     ZZ     -21.8317

 Total job time:  48.85s(wall), 136.37s(cpu)
        *  Thank you very much for using Q-Chem.  Have a nice day.  *
