 Q-Chem 5.2 (devel), Q-Chem, Inc., Pleasanton, CA (2019)
 Q-Chem 5.2.2 for Intel X86 EM64T Linux

User input:
--------------------------------------------------------------
$rem
   JOBTYPE  sp
   EXCHANGE   omegaB97X-D
   BASIS   6-311+G(2df,2pd)
   max_scf_cycles   250
   geom_opt_max_cycles   1500
   basis2 6-31G*
   scf_algorithm rca_diis
   SYM_IGNORE  TRUE
   print_input   true
   geom_opt_dmax   80
   pop_mulliken false
   XC_GRID 000075000302
$end

$molecule
0 1
C       1.2609287653     0.0473300184     0.2697836586
C       -0.0000000783     -0.0579201024     -0.5971163007
H       1.2611270669     -0.8544796635     0.8887607495
H       1.3898543440     0.8970456615     0.9400071958
H       2.1311245925     -0.0500270093     -0.3805750526
C       -1.2609289228     0.0473301209     0.2697836257
H       -0.0000004011     -0.8848447142     -1.3110475392
H       0.0000003918     0.8630273135     -1.1867441286
H       -1.2611272094     -0.8544796118     0.8887606190
H       -2.1311246829     -0.0500270069     -0.3805751467
H       -1.3898539265     0.8970456597     0.9400073382
--------------------------------------------------------------

             Standard Nuclear Orientation (Angstroms)
    I     Atom           X                Y                Z
 ----------------------------------------------------------------
    1      C       1.2609287653     0.0473300184     0.2697836586
    2      C      -0.0000000783    -0.0579201024    -0.5971163007
    3      H       1.2611270669    -0.8544796635     0.8887607495
    4      H       1.3898543440     0.8970456615     0.9400071958
    5      H       2.1311245925    -0.0500270093    -0.3805750526
    6      C      -1.2609289228     0.0473301209     0.2697836257
    7      H      -0.0000004011    -0.8848447142    -1.3110475392
    8      H       0.0000003918     0.8630273135    -1.1867441286
    9      H      -1.2611272094    -0.8544796118     0.8887606190
   10      H      -2.1311246829    -0.0500270069    -0.3805751467
   11      H      -1.3898539265     0.8970456597     0.9400073382
 ----------------------------------------------------------------

    7    -119.0919246518      5.21E-06 Convergence criterion met
    5    -119.1350894000      9.47E-06 Convergence criterion met
 Total energy in the final basis set = -119.13508940

                    Orbital Energies (a.u.)
 --------------------------------------------------------------

 Alpha MOs
 -- Occupied --
-10.2771 -10.2651 -10.2650  -0.8801  -0.7763  -0.6790  -0.5442  -0.5210
 -0.4913  -0.4577  -0.4378  -0.4070  -0.3925

                    Cartesian Multipole Moments
 -----------------------------------------------------------------
    Charge (ESU x 10^10)
                 0.0000
    Dipole Moment (Debye)
         X       0.0000      Y      -0.0088      Z      -0.1013
       Tot       0.1017
    Quadrupole Moments (Debye-Ang)
        XX     -22.4395     XY       0.0000     YY     -21.3655
        XZ       0.0000     YZ       0.6601     ZZ     -21.6522

 Total job time:  44.36s(wall), 123.10s(cpu)
        *  Thank you very much for using Q-Chem.  Have a nice day.  *
