 Q-Chem 5.2 (devel), Q-Chem, Inc., Pleasanton, CA (2019)
 Q-Chem 5.2.2 for Intel X86 EM64T Linux

User input:
--------------------------------------------------------------
$rem
   JOBTYPE  sp
   EXCHANGE   omegaB97X-D
   BASIS   6-311+G(2df,2pd)
   max_scf_cycles   250
   geom_opt_max_cycles   1500
   basis2 6-31G*
   scf_algorithm rca_diis
   SYM_IGNORE  TRUE
   print_input   true
   geom_opt_dmax   80
   pop_mulliken false
   XC_GRID 000075000302
$end

$molecule
0 1
C       1.4721177546     -0.0001932940     0.2635488047
C       -0.0000000721     0.0026446635     -0.2246507266
H       1.7915066590     -0.8853261920     0.8146968718
H       1.7961089946     0.8820425752     0.8172697318
H       2.0089809138     0.0047212731     -0.6893487600
C       -1.4721180104     -0.0001936024     0.2635483773
H       0.0000008074     -0.8460412819     -0.9173983606
H       -0.0000003622     0.8409080164     -0.9292390034
H       -1.7915069184     -0.8853260771     0.8146971058
H       -2.0089815969     0.0047222141     -0.6893487037
H       -1.7961082301     0.8820423711     0.8172696817
--------------------------------------------------------------

             Standard Nuclear Orientation (Angstroms)
    I     Atom           X                Y                Z
 ----------------------------------------------------------------
    1      C       1.4721177546    -0.0001932940     0.2635488047
    2      C      -0.0000000721     0.0026446635    -0.2246507266
    3      H       1.7915066590    -0.8853261920     0.8146968718
    4      H       1.7961089946     0.8820425752     0.8172697318
    5      H       2.0089809138     0.0047212731    -0.6893487600
    6      C      -1.4721180104    -0.0001936024     0.2635483773
    7      H       0.0000008074    -0.8460412819    -0.9173983606
    8      H      -0.0000003622     0.8409080164    -0.9292390034
    9      H      -1.7915069184    -0.8853260771     0.8146971058
   10      H      -2.0089815969     0.0047222141    -0.6893487037
   11      H      -1.7961082301     0.8820423711     0.8172696817
 ----------------------------------------------------------------

    7    -119.0718181308      4.16E-06 Convergence criterion met
    6    -119.1150992628      4.20E-06 Convergence criterion met
 Total energy in the final basis set = -119.11509926

                    Orbital Energies (a.u.)
 --------------------------------------------------------------

 Alpha MOs
 -- Occupied --
-10.2787 -10.2730 -10.2730  -0.8735  -0.7915  -0.6725  -0.5365  -0.5075
 -0.4998  -0.4749  -0.4290  -0.3981  -0.3917

                    Cartesian Multipole Moments
 -----------------------------------------------------------------
    Charge (ESU x 10^10)
                -0.0000
    Dipole Moment (Debye)
         X       0.0000      Y      -0.0031      Z      -0.2417
       Tot       0.2417
    Quadrupole Moments (Debye-Ang)
        XX     -21.8091     XY      -0.0000     YY     -21.5157
        XZ       0.0000     YZ      -0.0218     ZZ     -21.7753

 Total job time:  46.86s(wall), 130.65s(cpu)
        *  Thank you very much for using Q-Chem.  Have a nice day.  *
