 Q-Chem 5.2 (devel), Q-Chem, Inc., Pleasanton, CA (2019)
 Q-Chem 5.2.2 for Intel X86 EM64T Linux

User input:
--------------------------------------------------------------
$rem
   JOBTYPE  sp
   EXCHANGE   omegaB97X-D
   BASIS   6-311+G(2df,2pd)
   max_scf_cycles   250
   geom_opt_max_cycles   1500
   basis2 6-31G*
   scf_algorithm rca_diis
   SYM_IGNORE  TRUE
   print_input   true
   geom_opt_dmax   80
   pop_mulliken false
   XC_GRID 000075000302
$end

$molecule
0 1
C       1.2796796480     -0.0563669936     0.2032482983
C       0.0000000076     -0.0334302971     -0.6405577819
H       1.1607436335     -0.7493535028     1.0394825433
H       1.3663565941     0.7107515244     0.9850879987
H       2.0925663236     0.1462832488     -0.4854992752
C       -1.2796793847     -0.0563659254     0.2032490328
H       -0.0000006858     -0.9401448736     -1.2503518238
H       0.0000004079     0.8709499760     -1.2526833464
H       -1.1607472198     -0.7493563425     1.0394807342
H       -2.0925670430     0.1462797466     -0.4854989146
H       -1.3663523418     0.7107541052     0.9850875533
--------------------------------------------------------------

             Standard Nuclear Orientation (Angstroms)
    I     Atom           X                Y                Z
 ----------------------------------------------------------------
    1      C       1.2796796480    -0.0563669936     0.2032482983
    2      C       0.0000000076    -0.0334302971    -0.6405577819
    3      H       1.1607436335    -0.7493535028     1.0394825433
    4      H       1.3663565941     0.7107515244     0.9850879987
    5      H       2.0925663236     0.1462832488    -0.4854992752
    6      C      -1.2796793847    -0.0563659254     0.2032490328
    7      H      -0.0000006858    -0.9401448736    -1.2503518238
    8      H       0.0000004079     0.8709499760    -1.2526833464
    9      H      -1.1607472198    -0.7493563425     1.0394807342
   10      H      -2.0925670430     0.1462797466    -0.4854989146
   11      H      -1.3663523418     0.7107541052     0.9850875533
 ----------------------------------------------------------------

    7    -119.0467759084      6.78E-06 Convergence criterion met
    6    -119.0927707412      4.26E-06 Convergence criterion met
 Total energy in the final basis set = -119.09277074

                    Orbital Energies (a.u.)
 --------------------------------------------------------------

 Alpha MOs
 -- Occupied --
-10.2763 -10.2668 -10.2668  -0.8828  -0.7818  -0.6874  -0.5524  -0.5300
 -0.5149  -0.4384  -0.4357  -0.3860  -0.3843

                    Cartesian Multipole Moments
 -----------------------------------------------------------------
    Charge (ESU x 10^10)
                 0.0000
    Dipole Moment (Debye)
         X      -0.0000      Y       0.2869      Z       0.1452
       Tot       0.3215
    Quadrupole Moments (Debye-Ang)
        XX     -22.8872     XY       0.0000     YY     -22.7662
        XZ       0.0000     YZ      -0.3941     ZZ     -20.4378

 Total job time:  48.84s(wall), 136.09s(cpu)
        *  Thank you very much for using Q-Chem.  Have a nice day.  *
