 Q-Chem 5.2 (devel), Q-Chem, Inc., Pleasanton, CA (2019)
 Q-Chem 5.2.2 for Intel X86 EM64T Linux

User input:
--------------------------------------------------------------
$rem
   JOBTYPE  sp
   EXCHANGE   omegaB97X-D
   BASIS   6-311+G(2df,2pd)
   max_scf_cycles   250
   geom_opt_max_cycles   1500
   basis2 6-31G*
   scf_algorithm rca_diis
   SYM_IGNORE  TRUE
   print_input   true
   geom_opt_dmax   80
   pop_mulliken false
   XC_GRID 000075000302
$end

$molecule
0 1
C       1.2754203866     0.0228166031     0.1883557228
C       -0.0000000718     -0.0225224337     -0.5467273354
H       1.1424314026     -0.8395076923     0.8500155105
H       1.1946367203     0.8613279351     0.8836039582
H       2.2585986603     -0.0283368723     -0.2710059321
C       -1.2754203279     0.0228166783     0.1883556263
H       0.0000003720     -0.8735342019     -1.2292127375
H       -0.0000002717     0.8634564054     -1.1849533388
H       -1.1424315266     -0.8395076110     0.8500154614
H       -2.2585988168     -0.0283362392     -0.2710057218
H       -1.1946365877     0.8613280945     0.8836038054
--------------------------------------------------------------

             Standard Nuclear Orientation (Angstroms)
    I     Atom           X                Y                Z
 ----------------------------------------------------------------
    1      C       1.2754203866     0.0228166031     0.1883557228
    2      C      -0.0000000718    -0.0225224337    -0.5467273354
    3      H       1.1424314026    -0.8395076923     0.8500155105
    4      H       1.1946367203     0.8613279351     0.8836039582
    5      H       2.2585986603    -0.0283368723    -0.2710059321
    6      C      -1.2754203279     0.0228166783     0.1883556263
    7      H       0.0000003720    -0.8735342019    -1.2292127375
    8      H      -0.0000002717     0.8634564054    -1.1849533388
    9      H      -1.1424315266    -0.8395076110     0.8500154614
   10      H      -2.2585988168    -0.0283362392    -0.2710057218
   11      H      -1.1946365877     0.8613280945     0.8836038054
 ----------------------------------------------------------------

    7    -119.0762511128      4.67E-06 Convergence criterion met
    6    -119.1207845552      4.17E-06 Convergence criterion met
 Total energy in the final basis set = -119.12078456

                    Orbital Energies (a.u.)
 --------------------------------------------------------------

 Alpha MOs
 -- Occupied --
-10.2669 -10.2655 -10.2655  -0.9008  -0.7858  -0.6747  -0.5562  -0.5464
 -0.4779  -0.4641  -0.4523  -0.4034  -0.3812

                    Cartesian Multipole Moments
 -----------------------------------------------------------------
    Charge (ESU x 10^10)
                 0.0000
    Dipole Moment (Debye)
         X      -0.0000      Y      -0.0211      Z      -0.0371
       Tot       0.0426
    Quadrupole Moments (Debye-Ang)
        XX     -21.1217     XY      -0.0000     YY     -21.7681
        XZ      -0.0000     YZ       0.3173     ZZ     -22.5834

 Total job time:  49.12s(wall), 137.10s(cpu)
        *  Thank you very much for using Q-Chem.  Have a nice day.  *
