 Q-Chem 5.2 (devel), Q-Chem, Inc., Pleasanton, CA (2019)
 Q-Chem 5.2.2 for Intel X86 EM64T Linux

User input:
--------------------------------------------------------------
$rem
   JOBTYPE  sp
   EXCHANGE   omegaB97X-D
   BASIS   6-311+G(2df,2pd)
   max_scf_cycles   250
   geom_opt_max_cycles   1500
   basis2 6-31G*
   scf_algorithm rca_diis
   SYM_IGNORE  TRUE
   print_input   true
   geom_opt_dmax   80
   pop_mulliken false
   XC_GRID 000075000302
$end

$molecule
0 1
C       1.2522403559     -0.0951531170     0.2558140873
C       0.0000000274     -0.1709751404     -0.6143171395
H       1.4415424629     -0.8068177919     1.0583885950
H       1.0820183161     0.8815083851     0.7212097169
H       2.1488666899     0.0351463008     -0.3499889248
C       -1.2522401212     -0.0951532020     0.2558144499
H       0.0000000524     -0.7515100118     -1.5350282966
H       -0.0000003438     0.8931173379     -0.8804567269
H       -1.4415427151     -0.8068178550     1.0583887635
H       -2.1488661496     0.0351469869     -0.3499888730
H       -1.0820186356     0.8815087734     0.7212093671
--------------------------------------------------------------

             Standard Nuclear Orientation (Angstroms)
    I     Atom           X                Y                Z
 ----------------------------------------------------------------
    1      C       1.2522403559    -0.0951531170     0.2558140873
    2      C       0.0000000274    -0.1709751404    -0.6143171395
    3      H       1.4415424629    -0.8068177919     1.0583885950
    4      H       1.0820183161     0.8815083851     0.7212097169
    5      H       2.1488666899     0.0351463008    -0.3499889248
    6      C      -1.2522401212    -0.0951532020     0.2558144499
    7      H       0.0000000524    -0.7515100118    -1.5350282966
    8      H      -0.0000003438     0.8931173379    -0.8804567269
    9      H      -1.4415427151    -0.8068178550     1.0583887635
   10      H      -2.1488661496     0.0351469869    -0.3499888730
   11      H      -1.0820186356     0.8815087734     0.7212093671
 ----------------------------------------------------------------

    7    -119.0717785310      4.98E-06 Convergence criterion met
    6    -119.1159022784      3.83E-06 Convergence criterion met
 Total energy in the final basis set = -119.11590228

                    Orbital Energies (a.u.)
 --------------------------------------------------------------

 Alpha MOs
 -- Occupied --
-10.2771 -10.2674 -10.2673  -0.8912  -0.7775  -0.6763  -0.5582  -0.5216
 -0.4919  -0.4512  -0.4263  -0.4156  -0.3918

                    Cartesian Multipole Moments
 -----------------------------------------------------------------
    Charge (ESU x 10^10)
                -0.0000
    Dipole Moment (Debye)
         X      -0.0000      Y       0.2385      Z      -0.1003
       Tot       0.2587
    Quadrupole Moments (Debye-Ang)
        XX     -22.2199     XY      -0.0000     YY     -21.6864
        XZ      -0.0000     YZ      -0.1213     ZZ     -21.7149

 Total job time:  49.54s(wall), 137.84s(cpu)
        *  Thank you very much for using Q-Chem.  Have a nice day.  *
