 Q-Chem 5.2 (devel), Q-Chem, Inc., Pleasanton, CA (2019)
 Q-Chem 5.2.2 for Intel X86 EM64T Linux

User input:
--------------------------------------------------------------
$rem
   JOBTYPE  sp
   EXCHANGE   omegaB97X-D
   BASIS   6-311+G(2df,2pd)
   max_scf_cycles   250
   geom_opt_max_cycles   1500
   basis2 6-31G*
   scf_algorithm rca_diis
   SYM_IGNORE  TRUE
   print_input   true
   geom_opt_dmax   80
   pop_mulliken false
   XC_GRID 000075000302
$end

$molecule
0 1
C       1.2670686962     -0.0045013057     0.2594393409
C       -0.0000000346     0.0281288325     -0.5867527932
H       1.3040230076     -0.8490618237     0.8657530940
H       1.3061386752     0.9110388281     0.9424154604
H       2.1650722785     0.0076937804     -0.3603862666
C       -1.2670688267     -0.0045009402     0.2594393253
H       -0.0000000526     -0.9533671624     -1.3288975337
H       -0.0000000678     0.7948997152     -1.1577479110
H       -1.3040232521     -0.8490621542     0.8657535282
H       -2.1650718258     0.0076946952     -0.3603859191
H       -1.3061386587     0.9110382008     0.9424146938
--------------------------------------------------------------

             Standard Nuclear Orientation (Angstroms)
    I     Atom           X                Y                Z
 ----------------------------------------------------------------
    1      C       1.2670686962    -0.0045013057     0.2594393409
    2      C      -0.0000000346     0.0281288325    -0.5867527932
    3      H       1.3040230076    -0.8490618237     0.8657530940
    4      H       1.3061386752     0.9110388281     0.9424154604
    5      H       2.1650722785     0.0076937804    -0.3603862666
    6      C      -1.2670688267    -0.0045009402     0.2594393253
    7      H      -0.0000000526    -0.9533671624    -1.3288975337
    8      H      -0.0000000678     0.7948997152    -1.1577479110
    9      H      -1.3040232521    -0.8490621542     0.8657535282
   10      H      -2.1650718258     0.0076946952    -0.3603859191
   11      H      -1.3061386587     0.9110382008     0.9424146938
 ----------------------------------------------------------------

    7    -119.0728529223      5.17E-06 Convergence criterion met
    6    -119.1170039842      4.04E-06 Convergence criterion met
 Total energy in the final basis set = -119.11700398

                    Orbital Energies (a.u.)
 --------------------------------------------------------------

 Alpha MOs
 -- Occupied --
-10.2731 -10.2656 -10.2655  -0.8840  -0.7785  -0.6860  -0.5448  -0.5230
 -0.4881  -0.4596  -0.4317  -0.4194  -0.3952

                    Cartesian Multipole Moments
 -----------------------------------------------------------------
    Charge (ESU x 10^10)
                -0.0000
    Dipole Moment (Debye)
         X      -0.0000      Y       0.0467      Z      -0.0458
       Tot       0.0654
    Quadrupole Moments (Debye-Ang)
        XX     -22.1184     XY      -0.0000     YY     -21.3814
        XZ      -0.0000     YZ      -0.2576     ZZ     -21.9200

 Total job time:  49.30s(wall), 137.71s(cpu)
        *  Thank you very much for using Q-Chem.  Have a nice day.  *
