 Q-Chem 5.2 (devel), Q-Chem, Inc., Pleasanton, CA (2019)
 Q-Chem 5.2.2 for Intel X86 EM64T Linux

User input:
--------------------------------------------------------------
$rem
   JOBTYPE  sp
   EXCHANGE   omegaB97X-D
   BASIS   6-311+G(2df,2pd)
   max_scf_cycles   250
   geom_opt_max_cycles   1500
   basis2 6-31G*
   scf_algorithm rca_diis
   SYM_IGNORE  TRUE
   print_input   true
   geom_opt_dmax   80
   pop_mulliken false
   XC_GRID 000075000302
$end

$molecule
0 1
C       1.2643980138     -0.0488721292     0.2574195501
C       0.0000000153     -0.0874241166     -0.5950250310
H       1.3848944761     -0.8507597991     0.9866357477
H       1.2005761198     0.8892023621     0.8157622084
H       2.1627821867     0.0158693600     -0.3567730983
C       -1.2643978952     -0.0488721442     0.2574197303
H       0.0000000580     -0.8225844483     -1.4004920491
H       -0.0000002313     0.8991287706     -1.0695268430
H       -1.3848945953     -0.8507597998     0.9866358392
H       -2.1627819217     0.0158700083     -0.3567730745
H       -1.2005762867     0.8892026022     0.8157620392
--------------------------------------------------------------

             Standard Nuclear Orientation (Angstroms)
    I     Atom           X                Y                Z
 ----------------------------------------------------------------
    1      C       1.2643980138    -0.0488721292     0.2574195501
    2      C       0.0000000153    -0.0874241166    -0.5950250310
    3      H       1.3848944761    -0.8507597991     0.9866357477
    4      H       1.2005761198     0.8892023621     0.8157622084
    5      H       2.1627821867     0.0158693600    -0.3567730983
    6      C      -1.2643978952    -0.0488721442     0.2574197303
    7      H       0.0000000580    -0.8225844483    -1.4004920491
    8      H      -0.0000002313     0.8991287706    -1.0695268430
    9      H      -1.3848945953    -0.8507597998     0.9866358392
   10      H      -2.1627819217     0.0158700083    -0.3567730745
   11      H      -1.2005762867     0.8892026022     0.8157620392
 ----------------------------------------------------------------

    7    -119.0958596502      4.55E-06 Convergence criterion met
    6    -119.1389925935      3.88E-06 Convergence criterion met
 Total energy in the final basis set = -119.13899259

                    Orbital Energies (a.u.)
 --------------------------------------------------------------

 Alpha MOs
 -- Occupied --
-10.2750 -10.2658 -10.2658  -0.8834  -0.7772  -0.6775  -0.5488  -0.5233
 -0.4859  -0.4593  -0.4203  -0.4183  -0.4032

                    Cartesian Multipole Moments
 -----------------------------------------------------------------
    Charge (ESU x 10^10)
                -0.0000
    Dipole Moment (Debye)
         X      -0.0000      Y       0.1190      Z      -0.0854
       Tot       0.1465
    Quadrupole Moments (Debye-Ang)
        XX     -22.1687     XY      -0.0000     YY     -21.4613
        XZ      -0.0000     YZ      -0.0650     ZZ     -21.8050

 Total job time:  48.06s(wall), 133.69s(cpu)
        *  Thank you very much for using Q-Chem.  Have a nice day.  *
