 Q-Chem 5.2 (devel), Q-Chem, Inc., Pleasanton, CA (2019)
 Q-Chem 5.2.2 for Intel X86 EM64T Linux

User input:
--------------------------------------------------------------
$rem
   JOBTYPE  sp
   EXCHANGE   omegaB97X-D
   BASIS   6-311+G(2df,2pd)
   max_scf_cycles   250
   geom_opt_max_cycles   1500
   basis2 6-31G*
   scf_algorithm rca_diis
   SYM_IGNORE  TRUE
   print_input   true
   geom_opt_dmax   80
   pop_mulliken false
   XC_GRID 000075000302
$end

$molecule
0 1
C       1.2670085839     -0.0479378619     0.2592329040
C       0.0002363067     0.0000018766     -0.5867857781
H       1.2848011177     -0.7933500299     0.8144950179
H       1.3312054849     0.9718064334     0.9919471198
H       2.1611794832     -0.0531519983     -0.3580552277
C       -1.2655842397     0.0479149863     0.2606136391
H       -0.0185609437     -0.8736829991     -1.2425845788
H       0.0185965783     0.8737039824     -1.2425824323
H       -1.3293401966     -0.9691440194     0.9915172947
H       -2.1664354367     0.0531658196     -0.3607593649
H       -1.2831067987     0.7906744762     0.8140064252
--------------------------------------------------------------

             Standard Nuclear Orientation (Angstroms)
    I     Atom           X                Y                Z
 ----------------------------------------------------------------
    1      C       1.2670085839    -0.0479378619     0.2592329040
    2      C       0.0002363067     0.0000018766    -0.5867857781
    3      H       1.2848011177    -0.7933500299     0.8144950179
    4      H       1.3312054849     0.9718064334     0.9919471198
    5      H       2.1611794832    -0.0531519983    -0.3580552277
    6      C      -1.2655842397     0.0479149863     0.2606136391
    7      H      -0.0185609437    -0.8736829991    -1.2425845788
    8      H       0.0185965783     0.8737039824    -1.2425824323
    9      H      -1.3293401966    -0.9691440194     0.9915172947
   10      H      -2.1664354367     0.0531658196    -0.3607593649
   11      H      -1.2831067987     0.7906744762     0.8140064252
 ----------------------------------------------------------------

    7    -119.0319696499      5.96E-06 Convergence criterion met
    5    -119.0778564282      9.00E-06 Convergence criterion met
 Total energy in the final basis set = -119.07785643

                    Orbital Energies (a.u.)
 --------------------------------------------------------------

 Alpha MOs
 -- Occupied --
-10.2759 -10.2636 -10.2635  -0.8856  -0.7868  -0.6862  -0.5507  -0.5262
 -0.4858  -0.4688  -0.4204  -0.4123  -0.4026

                    Cartesian Multipole Moments
 -----------------------------------------------------------------
    Charge (ESU x 10^10)
                -0.0000
    Dipole Moment (Debye)
         X       0.0048      Y      -0.0025      Z      -0.1868
       Tot       0.1869
    Quadrupole Moments (Debye-Ang)
        XX     -22.1723     XY      -0.6051     YY     -21.3577
        XZ      -0.0072     YZ      -0.0013     ZZ     -21.9134

 Total job time:  44.59s(wall), 123.58s(cpu)
        *  Thank you very much for using Q-Chem.  Have a nice day.  *
