 Q-Chem 5.2 (devel), Q-Chem, Inc., Pleasanton, CA (2019)
 Q-Chem 5.2.2 for Intel X86 EM64T Linux

User input:
--------------------------------------------------------------
$rem
   JOBTYPE  sp
   EXCHANGE   omegaB97X-D
   BASIS   6-311+G(2df,2pd)
   max_scf_cycles   250
   geom_opt_max_cycles   1500
   basis2 6-31G*
   scf_algorithm rca_diis
   SYM_IGNORE  TRUE
   print_input   true
   geom_opt_dmax   80
   pop_mulliken false
   XC_GRID 000075000302
$end

$molecule
0 1
C       1.2746946746     0.0000040811     0.2644789500
C       0.0062732641     -0.0000000499     -0.5872250355
H       1.3082025188     -0.8444685668     0.8808530847
H       1.3081982048     0.8444595338     0.8808440311
H       2.1403384408     0.0000000997     -0.3333757036
C       -1.2596972566     -0.0000042898     0.2544965325
H       0.0080366935     -0.8738724543     -1.2430444487
H       0.0080307661     0.8738723155     -1.2430443726
H       -1.3025919382     -0.9167936915     0.9268418776
H       -2.1888886866     0.0000007162     -0.3866311459
H       -1.3025967417     0.9168029720     0.9268512494
--------------------------------------------------------------

             Standard Nuclear Orientation (Angstroms)
    I     Atom           X                Y                Z
 ----------------------------------------------------------------
    1      C       1.2746946746     0.0000040811     0.2644789500
    2      C       0.0062732641    -0.0000000499    -0.5872250355
    3      H       1.3082025188    -0.8444685668     0.8808530847
    4      H       1.3081982048     0.8444595338     0.8808440311
    5      H       2.1403384408     0.0000000997    -0.3333757036
    6      C      -1.2596972566    -0.0000042898     0.2544965325
    7      H       0.0080366935    -0.8738724543    -1.2430444487
    8      H       0.0080307661     0.8738723155    -1.2430443726
    9      H      -1.3025919382    -0.9167936915     0.9268418776
   10      H      -2.1888886866     0.0000007162    -0.3866311459
   11      H      -1.3025967417     0.9168029720     0.9268512494
 ----------------------------------------------------------------

    7    -119.0959444099      4.62E-06 Convergence criterion met
    6    -119.1391244616      4.12E-06 Convergence criterion met
 Total energy in the final basis set = -119.13912446

                    Orbital Energies (a.u.)
 --------------------------------------------------------------

 Alpha MOs
 -- Occupied --
-10.2786 -10.2741 -10.2510  -0.8818  -0.7781  -0.6770  -0.5464  -0.5249
 -0.4825  -0.4641  -0.4219  -0.4143  -0.4069

                    Cartesian Multipole Moments
 -----------------------------------------------------------------
    Charge (ESU x 10^10)
                 0.0000
    Dipole Moment (Debye)
         X       0.0977      Y      -0.0000      Z      -0.0891
       Tot       0.1322
    Quadrupole Moments (Debye-Ang)
        XX     -22.1647     XY       0.0000     YY     -21.3611
        XZ       0.0983     YZ      -0.0000     ZZ     -21.8369

 Total job time:  48.49s(wall), 135.52s(cpu)
        *  Thank you very much for using Q-Chem.  Have a nice day.  *
