 Q-Chem 5.2 (devel), Q-Chem, Inc., Pleasanton, CA (2019)
 Q-Chem 5.2.2 for Intel X86 EM64T Linux

User input:
--------------------------------------------------------------
$rem
   JOBTYPE  sp
   EXCHANGE   omegaB97X-D
   BASIS   6-311+G(2df,2pd)
   max_scf_cycles   250
   geom_opt_max_cycles   1500
   basis2 6-31G*
   scf_algorithm rca_diis
   SYM_IGNORE  TRUE
   print_input   true
   geom_opt_dmax   80
   pop_mulliken false
   XC_GRID 000075000302
$end

$molecule
0 1
C       1.2786037067     -0.0000665569     0.2836690543
C       0.0000002014     -0.0002941440     -0.5724828345
H       1.2552312840     -0.9006345990     0.8982185171
H       1.2562363833     0.9006295644     0.8981079165
H       2.1322713574     0.0003494161     -0.3926262960
C       -1.2786032914     -0.0000665141     0.2836689445
H       -0.0000000094     -0.8731230053     -1.2308327082
H       0.0000001093     0.8728616931     -1.2303778871
H       -1.2552317907     -0.9006346452     0.8982183094
H       -2.1322715908     0.0003497062     -0.3926256812
H       -1.2562364204     0.9006297508     0.8981076840
--------------------------------------------------------------

             Standard Nuclear Orientation (Angstroms)
    I     Atom           X                Y                Z
 ----------------------------------------------------------------
    1      C       1.2786037067    -0.0000665569     0.2836690543
    2      C       0.0000002014    -0.0002941440    -0.5724828345
    3      H       1.2552312840    -0.9006345990     0.8982185171
    4      H       1.2562363833     0.9006295644     0.8981079165
    5      H       2.1322713574     0.0003494161    -0.3926262960
    6      C      -1.2786032914    -0.0000665141     0.2836689445
    7      H      -0.0000000094    -0.8731230053    -1.2308327082
    8      H       0.0000001093     0.8728616931    -1.2303778871
    9      H      -1.2552317907    -0.9006346452     0.8982183094
   10      H      -2.1322715908     0.0003497062    -0.3926256812
   11      H      -1.2562364204     0.9006297508     0.8981076840
 ----------------------------------------------------------------

    7    -119.0997010560      4.77E-06 Convergence criterion met
    6    -119.1426623719      4.13E-06 Convergence criterion met
 Total energy in the final basis set = -119.14266237

                    Orbital Energies (a.u.)
 --------------------------------------------------------------

 Alpha MOs
 -- Occupied --
-10.2723 -10.2660 -10.2660  -0.8799  -0.7760  -0.6721  -0.5490  -0.5247
 -0.4827  -0.4699  -0.4145  -0.4108  -0.4097

                    Cartesian Multipole Moments
 -----------------------------------------------------------------
    Charge (ESU x 10^10)
                -0.0000
    Dipole Moment (Debye)
         X      -0.0000      Y       0.0007      Z      -0.1419
       Tot       0.1419
    Quadrupole Moments (Debye-Ang)
        XX     -22.6553     XY       0.0000     YY     -21.1839
        XZ      -0.0000     YZ       0.0003     ZZ     -21.9412

 Total job time:  49.03s(wall), 136.45s(cpu)
        *  Thank you very much for using Q-Chem.  Have a nice day.  *
