 Q-Chem 5.2 (devel), Q-Chem, Inc., Pleasanton, CA (2019)
 Q-Chem 5.2.2 for Intel X86 EM64T Linux

User input:
--------------------------------------------------------------
$rem
   JOBTYPE  sp
   EXCHANGE   omegaB97X-D
   BASIS   6-311+G(2df,2pd)
   max_scf_cycles   250
   geom_opt_max_cycles   1500
   basis2 6-31G*
   scf_algorithm rca_diis
   SYM_IGNORE  TRUE
   print_input   true
   geom_opt_dmax   80
   pop_mulliken false
   XC_GRID 000075000302
$end

$molecule
0 1
C       1.1096927710     0.0001679875     0.2603165767
C       0.0000000465     -0.0023505661     -0.7617680992
H       0.9732592928     -0.8745217848     0.9007551326
H       0.9698901444     0.8758675459     0.8983383133
H       2.1357247243     -0.0011275033     -0.1034268651
C       -1.1096925165     0.0001681285     0.2603167752
H       -0.0000003780     -0.8807817172     -1.4086529476
H       0.0000001015     0.8823598448     -1.4005004814
H       -0.9732592959     -0.8745219558     0.9007549286
H       -2.1357244593     -0.0011269814     -0.1034270498
H       -0.9698904914     0.8758676680     0.8983387355
--------------------------------------------------------------

             Standard Nuclear Orientation (Angstroms)
    I     Atom           X                Y                Z
 ----------------------------------------------------------------
    1      C       1.1096927710     0.0001679875     0.2603165767
    2      C       0.0000000465    -0.0023505661    -0.7617680992
    3      H       0.9732592928    -0.8745217848     0.9007551326
    4      H       0.9698901444     0.8758675459     0.8983383133
    5      H       2.1357247243    -0.0011275033    -0.1034268651
    6      C      -1.1096925165     0.0001681285     0.2603167752
    7      H      -0.0000003780    -0.8807817172    -1.4086529476
    8      H       0.0000001015     0.8823598448    -1.4005004814
    9      H      -0.9732592959    -0.8745219558     0.9007549286
   10      H      -2.1357244593    -0.0011269814    -0.1034270498
   11      H      -0.9698904914     0.8758676680     0.8983387355
 ----------------------------------------------------------------

    7    -119.0822957124      5.45E-06 Convergence criterion met
    5    -119.1261623838      7.27E-06 Convergence criterion met
 Total energy in the final basis set = -119.12616238

                    Orbital Energies (a.u.)
 --------------------------------------------------------------

 Alpha MOs
 -- Occupied --
-10.2734 -10.2628 -10.2628  -0.9015  -0.7595  -0.6883  -0.5598  -0.5395
 -0.4616  -0.4439  -0.4402  -0.4199  -0.4008

                    Cartesian Multipole Moments
 -----------------------------------------------------------------
    Charge (ESU x 10^10)
                -0.0000
    Dipole Moment (Debye)
         X      -0.0000      Y      -0.0001      Z      -0.0294
       Tot       0.0294
    Quadrupole Moments (Debye-Ang)
        XX     -22.7079     XY      -0.0000     YY     -21.2340
        XZ      -0.0000     YZ       0.0116     ZZ     -21.7348

 Total job time:  46.17s(wall), 128.17s(cpu)
        *  Thank you very much for using Q-Chem.  Have a nice day.  *
