 Q-Chem 5.2 (devel), Q-Chem, Inc., Pleasanton, CA (2019)
 Q-Chem 5.2.2 for Intel X86 EM64T Linux

User input:
--------------------------------------------------------------
$rem
   JOBTYPE  sp
   EXCHANGE   omegaB97X-D
   BASIS   6-311+G(2df,2pd)
   max_scf_cycles   250
   geom_opt_max_cycles   1500
   basis2 6-31G*
   scf_algorithm rca_diis
   SYM_IGNORE  TRUE
   print_input   true
   geom_opt_dmax   80
   pop_mulliken false
   XC_GRID 000075000302
$end

$molecule
0 1
C       1.2555787661     0.0026093326     0.3086441152
C       -0.0000001962     0.0020565077     -0.5497540778
H       1.3001089468     -0.8202043162     0.8997148746
H       1.2995093750     0.8153651004     0.8931297526
H       2.3094137110     0.0015846673     -0.4282380591
C       -1.2555800935     0.0026093337     0.3086427912
H       0.0000000691     -0.8995770333     -1.2294669428
H       -0.0000001016     0.8988106999     -1.2262374143
H       -1.3001104150     -0.8202063504     0.8997154544
H       -2.3094092228     0.0015852334     -0.4282359573
H       -1.2995108996     0.8153674908     0.8931304822
--------------------------------------------------------------

             Standard Nuclear Orientation (Angstroms)
    I     Atom           X                Y                Z
 ----------------------------------------------------------------
    1      C       1.2555787661     0.0026093326     0.3086441152
    2      C      -0.0000001962     0.0020565077    -0.5497540778
    3      H       1.3001089468    -0.8202043162     0.8997148746
    4      H       1.2995093750     0.8153651004     0.8931297526
    5      H       2.3094137110     0.0015846673    -0.4282380591
    6      C      -1.2555800935     0.0026093337     0.3086427912
    7      H       0.0000000691    -0.8995770333    -1.2294669428
    8      H      -0.0000001016     0.8988106999    -1.2262374143
    9      H      -1.3001104150    -0.8202063504     0.8997154544
   10      H      -2.3094092228     0.0015852334    -0.4282359573
   11      H      -1.2995108996     0.8153674908     0.8931304822
 ----------------------------------------------------------------

    7    -119.0485472018      4.27E-06 Convergence criterion met
    5    -119.0928290758      9.76E-06 Convergence criterion met
 Total energy in the final basis set = -119.09282908

                    Orbital Energies (a.u.)
 --------------------------------------------------------------

 Alpha MOs
 -- Occupied --
-10.2825 -10.2680 -10.2680  -0.8861  -0.7816  -0.6824  -0.5572  -0.4993
 -0.4890  -0.4863  -0.4154  -0.4130  -0.3984

                    Cartesian Multipole Moments
 -----------------------------------------------------------------
    Charge (ESU x 10^10)
                 0.0000
    Dipole Moment (Debye)
         X      -0.0000      Y       0.0125      Z       0.2575
       Tot       0.2578
    Quadrupole Moments (Debye-Ang)
        XX     -23.0491     XY      -0.0000     YY     -21.4433
        XZ       0.0000     YZ       0.0012     ZZ     -21.6501

 Total job time:  44.42s(wall), 122.66s(cpu)
        *  Thank you very much for using Q-Chem.  Have a nice day.  *
