 Q-Chem 5.2 (devel), Q-Chem, Inc., Pleasanton, CA (2019)
 Q-Chem 5.2.2 for Intel X86 EM64T Linux

User input:
--------------------------------------------------------------
$rem
   JOBTYPE  sp
   EXCHANGE   omegaB97X-D
   BASIS   6-311+G(2df,2pd)
   max_scf_cycles   250
   geom_opt_max_cycles   1500
   basis2 6-31G*
   scf_algorithm rca_diis
   SYM_IGNORE  TRUE
   print_input   true
   geom_opt_dmax   80
   pop_mulliken false
   XC_GRID 000075000302
$end

$molecule
0 1
C       1.1861414641     0.0012653585     0.1876532434
C       0.1332760611     0.0000208505     -0.5814987930
H       1.2275068354     -0.8896560212     0.8128157851
H       1.2334857520     0.8892388692     0.8164178224
H       2.0511766229     0.0009970205     -0.4761512732
C       -1.3592770511     -0.0013629809     0.3210222614
H       0.3012821119     -0.8673894557     -1.2242471905
H       0.2975280595     0.8677759403     -1.2247522365
H       -1.3963985770     -0.8707460642     0.9850103695
H       -2.2842956212     -0.0012638390     -0.2566142131
H       -1.3904257182     0.8711209881     0.9813892434
--------------------------------------------------------------

             Standard Nuclear Orientation (Angstroms)
    I     Atom           X                Y                Z
 ----------------------------------------------------------------
    1      C       1.1861414641     0.0012653585     0.1876532434
    2      C       0.1332760611     0.0000208505    -0.5814987930
    3      H       1.2275068354    -0.8896560212     0.8128157851
    4      H       1.2334857520     0.8892388692     0.8164178224
    5      H       2.0511766229     0.0009970205    -0.4761512732
    6      C      -1.3592770511    -0.0013629809     0.3210222614
    7      H       0.3012821119    -0.8673894557    -1.2242471905
    8      H       0.2975280595     0.8677759403    -1.2247522365
    9      H      -1.3963985770    -0.8707460642     0.9850103695
   10      H      -2.2842956212    -0.0012638390    -0.2566142131
   11      H      -1.3904257182     0.8711209881     0.9813892434
 ----------------------------------------------------------------

    7    -119.0338650631      6.72E-06 Convergence criterion met
    6    -119.0797344415      5.17E-06 Convergence criterion met
 Total energy in the final basis set = -119.07973444

                    Orbital Energies (a.u.)
 --------------------------------------------------------------

 Alpha MOs
 -- Occupied --
-10.2793 -10.2718 -10.2484  -0.9154  -0.7743  -0.6679  -0.5643  -0.5396
 -0.4799  -0.4643  -0.4478  -0.3940  -0.3821

                    Cartesian Multipole Moments
 -----------------------------------------------------------------
    Charge (ESU x 10^10)
                 0.0000
    Dipole Moment (Debye)
         X       0.1727      Y       0.0004      Z      -0.0786
       Tot       0.1898
    Quadrupole Moments (Debye-Ang)
        XX     -21.9427     XY       0.0116     YY     -21.3637
        XZ      -1.0340     YZ       0.0007     ZZ     -21.9353

 Total job time:  49.32s(wall), 137.72s(cpu)
        *  Thank you very much for using Q-Chem.  Have a nice day.  *
