 Q-Chem 5.2 (devel), Q-Chem, Inc., Pleasanton, CA (2019)
 Q-Chem 5.2.2 for Intel X86 EM64T Linux

User input:
--------------------------------------------------------------
$rem
   JOBTYPE  sp
   EXCHANGE   omegaB97X-D
   BASIS   6-311+G(2df,2pd)
   max_scf_cycles   250
   geom_opt_max_cycles   1500
   basis2 6-31G*
   scf_algorithm rca_diis
   SYM_IGNORE  TRUE
   print_input   true
   geom_opt_dmax   80
   pop_mulliken false
   XC_GRID 000075000302
$end

$molecule
0 1
C       1.0666493661     0.0002067348     0.2612507216
C       0.0000000582     -0.0029696919     -0.8002315529
H       0.8869534616     -0.8725686001     0.8939047940
H       0.8827989515     0.8741480673     0.8907065604
H       2.1139506610     -0.0012894300     -0.0340353848
C       -1.0666490399     0.0002068998     0.2612509602
H       -0.0000004666     -0.8814453904     -1.4463497807
H       0.0000001457     0.8834216591     -1.4360273372
H       -0.8869534900     -0.8725688452     0.8939045347
H       -2.1139503528     -0.0012889407     -0.0340356260
H       -0.8827993554     0.8741482033     0.8907071296
--------------------------------------------------------------

             Standard Nuclear Orientation (Angstroms)
    I     Atom           X                Y                Z
 ----------------------------------------------------------------
    1      C       1.0666493661     0.0002067348     0.2612507216
    2      C       0.0000000582    -0.0029696919    -0.8002315529
    3      H       0.8869534616    -0.8725686001     0.8939047940
    4      H       0.8827989515     0.8741480673     0.8907065604
    5      H       2.1139506610    -0.0012894300    -0.0340353848
    6      C      -1.0666490399     0.0002068998     0.2612509602
    7      H      -0.0000004666    -0.8814453904    -1.4463497807
    8      H       0.0000001457     0.8834216591    -1.4360273372
    9      H      -0.8869534900    -0.8725688452     0.8939045347
   10      H      -2.1139503528    -0.0012889407    -0.0340356260
   11      H      -0.8827993554     0.8741482033     0.8907071296
 ----------------------------------------------------------------

    7    -119.0660499946      4.37E-06 Convergence criterion met
    5    -119.1107481691      6.76E-06 Convergence criterion met
 Total energy in the final basis set = -119.11074817

                    Orbital Energies (a.u.)
 --------------------------------------------------------------

 Alpha MOs
 -- Occupied --
-10.2735 -10.2623 -10.2623  -0.9105  -0.7527  -0.6932  -0.5663  -0.5435
 -0.4534  -0.4485  -0.4351  -0.4252  -0.3930

                    Cartesian Multipole Moments
 -----------------------------------------------------------------
    Charge (ESU x 10^10)
                -0.0000
    Dipole Moment (Debye)
         X      -0.0000      Y      -0.0002      Z      -0.0044
       Tot       0.0044
    Quadrupole Moments (Debye-Ang)
        XX     -23.0116     XY      -0.0000     YY     -21.1656
        XZ      -0.0000     YZ       0.0144     ZZ     -21.6156

 Total job time:  45.28s(wall), 125.37s(cpu)
        *  Thank you very much for using Q-Chem.  Have a nice day.  *
