 Q-Chem 5.2 (devel), Q-Chem, Inc., Pleasanton, CA (2019)
 Q-Chem 5.2.2 for Intel X86 EM64T Linux

User input:
--------------------------------------------------------------
$rem
   JOBTYPE  sp
   EXCHANGE   omegaB97X-D
   BASIS   6-311+G(2df,2pd)
   max_scf_cycles   250
   geom_opt_max_cycles   1500
   basis2 6-31G*
   scf_algorithm rca_diis
   SYM_IGNORE  TRUE
   print_input   true
   geom_opt_dmax   80
   pop_mulliken false
   XC_GRID 000075000302
$end

$molecule
0 1
C       1.2774744622     0.0251321345     0.2496656157
C       0.0112324088     0.0012863417     -0.5881646271
H       1.4049502176     -0.8340701809     0.9188387396
H       1.2123900767     0.8411013574     0.9684165831
H       2.1484473170     -0.1089157819     -0.3895046703
C       -1.2564916194     -0.0216962134     0.2673773819
H       0.0148374373     -0.8730052931     -1.2434188317
H       -0.0332567979     0.8738848626     -1.2441749264
H       -1.2059343468     -0.9150664798     0.8849983014
H       -2.1715390496     0.1069847307     -0.3150994922
H       -1.4021101664     0.9043651881     0.8321109448
--------------------------------------------------------------

             Standard Nuclear Orientation (Angstroms)
    I     Atom           X                Y                Z
 ----------------------------------------------------------------
    1      C       1.2774744622     0.0251321345     0.2496656157
    2      C       0.0112324088     0.0012863417    -0.5881646271
    3      H       1.4049502176    -0.8340701809     0.9188387396
    4      H       1.2123900767     0.8411013574     0.9684165831
    5      H       2.1484473170    -0.1089157819    -0.3895046703
    6      C      -1.2564916194    -0.0216962134     0.2673773819
    7      H       0.0148374373    -0.8730052931    -1.2434188317
    8      H      -0.0332567979     0.8738848626    -1.2441749264
    9      H      -1.2059343468    -0.9150664798     0.8849983014
   10      H      -2.1715390496     0.1069847307    -0.3150994922
   11      H      -1.4021101664     0.9043651881     0.8321109448
 ----------------------------------------------------------------

    7    -119.0887183860      5.29E-06 Convergence criterion met
    6    -119.1324014159      3.95E-06 Convergence criterion met
 Total energy in the final basis set = -119.13240142

                    Orbital Energies (a.u.)
 --------------------------------------------------------------

 Alpha MOs
 -- Occupied --
-10.2742 -10.2655 -10.2654  -0.8819  -0.7788  -0.6791  -0.5492  -0.5330
 -0.4824  -0.4554  -0.4281  -0.4141  -0.3939

                    Cartesian Multipole Moments
 -----------------------------------------------------------------
    Charge (ESU x 10^10)
                 0.0000
    Dipole Moment (Debye)
         X      -0.0371      Y      -0.0074      Z      -0.0747
       Tot       0.0838
    Quadrupole Moments (Debye-Ang)
        XX     -22.1427     XY      -0.9613     YY     -21.4096
        XZ       0.0355     YZ      -0.0111     ZZ     -21.8985

 Total job time:  49.05s(wall), 136.88s(cpu)
        *  Thank you very much for using Q-Chem.  Have a nice day.  *
