 Q-Chem 5.2 (devel), Q-Chem, Inc., Pleasanton, CA (2019)
 Q-Chem 5.2.2 for Intel X86 EM64T Linux

User input:
--------------------------------------------------------------
$rem
   JOBTYPE  sp
   EXCHANGE   omegaB97X-D
   BASIS   6-311+G(2df,2pd)
   max_scf_cycles   250
   geom_opt_max_cycles   1500
   basis2 6-31G*
   scf_algorithm rca_diis
   SYM_IGNORE  TRUE
   print_input   true
   geom_opt_dmax   80
   pop_mulliken false
   XC_GRID 000075000302
$end

$molecule
0 1
C       1.2674910066     0.0428446821     0.2583704349
C       -0.0000009519     0.0403835141     -0.5880567262
H       1.3082097188     -0.9209473616     0.9558016747
H       1.3025420340     0.8442246980     0.8515191247
H       2.1608633406     0.0336924887     -0.3581361758
C       -1.2674974511     0.0428457485     0.2583638347
H       -0.0000000583     -0.8933524590     -1.2824664555
H       0.0000000509     0.8533414485     -1.2035519150
H       -1.3082173796     -0.9209601787     0.9558069342
H       -2.1608415478     0.0336944591     -0.3581259563
H       -1.3025488228     0.8442336264     0.8515202446
--------------------------------------------------------------

             Standard Nuclear Orientation (Angstroms)
    I     Atom           X                Y                Z
 ----------------------------------------------------------------
    1      C       1.2674910066     0.0428446821     0.2583704349
    2      C      -0.0000009519     0.0403835141    -0.5880567262
    3      H       1.3082097188    -0.9209473616     0.9558016747
    4      H       1.3025420340     0.8442246980     0.8515191247
    5      H       2.1608633406     0.0336924887    -0.3581361758
    6      C      -1.2674974511     0.0428457485     0.2583638347
    7      H      -0.0000000583    -0.8933524590    -1.2824664555
    8      H       0.0000000509     0.8533414485    -1.2035519150
    9      H      -1.3082173796    -0.9209601787     0.9558069342
   10      H      -2.1608415478     0.0336944591    -0.3581259563
   11      H      -1.3025488228     0.8442336264     0.8515202446
 ----------------------------------------------------------------

    7    -119.0731910323      4.75E-06 Convergence criterion met
    5    -119.1173279555      9.96E-06 Convergence criterion met
 Total energy in the final basis set = -119.11732796

                    Orbital Energies (a.u.)
 --------------------------------------------------------------

 Alpha MOs
 -- Occupied --
-10.2742 -10.2642 -10.2642  -0.8837  -0.7807  -0.6821  -0.5469  -0.5258
 -0.4936  -0.4531  -0.4194  -0.4175  -0.4061

                    Cartesian Multipole Moments
 -----------------------------------------------------------------
    Charge (ESU x 10^10)
                 0.0000
    Dipole Moment (Debye)
         X      -0.0000      Y       0.3039      Z      -0.1117
       Tot       0.3238
    Quadrupole Moments (Debye-Ang)
        XX     -22.1380     XY      -0.0000     YY     -21.3377
        XZ       0.0000     YZ      -0.0045     ZZ     -21.8823

 Total job time:  44.08s(wall), 121.86s(cpu)
        *  Thank you very much for using Q-Chem.  Have a nice day.  *
