 Q-Chem 5.2 (devel), Q-Chem, Inc., Pleasanton, CA (2019)
 Q-Chem 5.2.2 for Intel X86 EM64T Linux

User input:
--------------------------------------------------------------
$rem
   JOBTYPE  sp
   EXCHANGE   omegaB97X-D
   BASIS   6-311+G(2df,2pd)
   max_scf_cycles   250
   geom_opt_max_cycles   1500
   basis2 6-31G*
   scf_algorithm rca_diis
   SYM_IGNORE  TRUE
   print_input   true
   geom_opt_dmax   80
   pop_mulliken false
   XC_GRID 000075000302
$end

$molecule
0 1
C       1.2883059935     0.1071243569     0.2307732757
C       0.0139707156     0.0009220071     -0.5782024478
H       1.1108222019     -0.8652066333     0.7040949799
H       1.4318836677     0.8300488122     1.0325998987
H       2.2157202408     -0.0181062098     -0.3264640096
C       -1.2356938842     -0.1105017616     0.3060772006
H       0.2436907204     -0.8384879870     -1.2387899475
H       -0.3253733774     0.8210823030     -1.2153353881
H       -1.5026851664     -0.8418440362     1.0658636982
H       -2.0687595973     0.0255135251     -0.3863504419
H       -1.1718815752     0.8894562896     0.7467782006
--------------------------------------------------------------

             Standard Nuclear Orientation (Angstroms)
    I     Atom           X                Y                Z
 ----------------------------------------------------------------
    1      C       1.2883059935     0.1071243569     0.2307732757
    2      C       0.0139707156     0.0009220071    -0.5782024478
    3      H       1.1108222019    -0.8652066333     0.7040949799
    4      H       1.4318836677     0.8300488122     1.0325998987
    5      H       2.2157202408    -0.0181062098    -0.3264640096
    6      C      -1.2356938842    -0.1105017616     0.3060772006
    7      H       0.2436907204    -0.8384879870    -1.2387899475
    8      H      -0.3253733774     0.8210823030    -1.2153353881
    9      H      -1.5026851664    -0.8418440362     1.0658636982
   10      H      -2.0687595973     0.0255135251    -0.3863504419
   11      H      -1.1718815752     0.8894562896     0.7467782006
 ----------------------------------------------------------------

    7    -119.0686037448      5.14E-06 Convergence criterion met
    6    -119.1127384787      4.23E-06 Convergence criterion met
 Total energy in the final basis set = -119.11273848

                    Orbital Energies (a.u.)
 --------------------------------------------------------------

 Alpha MOs
 -- Occupied --
-10.2808 -10.2671 -10.2653  -0.8899  -0.7829  -0.6770  -0.5569  -0.5294
 -0.4783  -0.4684  -0.4178  -0.4063  -0.3992

                    Cartesian Multipole Moments
 -----------------------------------------------------------------
    Charge (ESU x 10^10)
                 0.0000
    Dipole Moment (Debye)
         X      -0.0434      Y      -0.0279      Z      -0.0515
       Tot       0.0729
    Quadrupole Moments (Debye-Ang)
        XX     -21.9898     XY      -0.1366     YY     -21.6836
        XZ      -0.0654     YZ       0.0251     ZZ     -21.8888

 Total job time:  50.05s(wall), 139.46s(cpu)
        *  Thank you very much for using Q-Chem.  Have a nice day.  *
