 Q-Chem 5.2 (devel), Q-Chem, Inc., Pleasanton, CA (2019)
 Q-Chem 5.2.2 for Intel X86 EM64T Linux

User input:
--------------------------------------------------------------
$rem
   JOBTYPE  sp
   EXCHANGE   omegaB97X-D
   BASIS   6-311+G(2df,2pd)
   max_scf_cycles   250
   geom_opt_max_cycles   1500
   basis2 6-31G*
   scf_algorithm rca_diis
   SYM_IGNORE  TRUE
   print_input   true
   geom_opt_dmax   80
   pop_mulliken false
   XC_GRID 000075000302
$end

$molecule
0 1
C       1.2567108014     0.0272364908     0.2747123394
C       -0.0000003728     0.0294716802     -0.5511383558
H       1.3350239309     -0.8019599344     0.9867359267
H       1.1927992129     0.8215980367     1.0207003904
H       2.1244064866     -0.0799972924     -0.3690561957
C       -1.2567116724     0.0272396643     0.2747117078
H       -0.0000011997     -0.5957409252     -1.4587842244
H       0.0000015611     0.6325239162     -1.4752194845
H       -1.3350359956     -0.8019565214     0.9867351369
H       -2.1244048559     -0.0800093146     -0.3690573313
H       -1.1927879572     0.8215948657     1.0207051095
--------------------------------------------------------------

             Standard Nuclear Orientation (Angstroms)
    I     Atom           X                Y                Z
 ----------------------------------------------------------------
    1      C       1.2567108014     0.0272364908     0.2747123394
    2      C      -0.0000003728     0.0294716802    -0.5511383558
    3      H       1.3350239309    -0.8019599344     0.9867359267
    4      H       1.1927992129     0.8215980367     1.0207003904
    5      H       2.1244064866    -0.0799972924    -0.3690561957
    6      C      -1.2567116724     0.0272396643     0.2747117078
    7      H      -0.0000011997    -0.5957409252    -1.4587842244
    8      H       0.0000015611     0.6325239162    -1.4752194845
    9      H      -1.3350359956    -0.8019565214     0.9867351369
   10      H      -2.1244048559    -0.0800093146    -0.3690573313
   11      H      -1.1927879572     0.8215948657     1.0207051095
 ----------------------------------------------------------------

    7    -119.0421877786      8.22E-06 Convergence criterion met
    6    -119.0891114087      4.32E-06 Convergence criterion met
 Total energy in the final basis set = -119.08911141

                    Orbital Energies (a.u.)
 --------------------------------------------------------------

 Alpha MOs
 -- Occupied --
-10.2745 -10.2681 -10.2681  -0.8882  -0.7803  -0.7109  -0.5494  -0.5067
 -0.5029  -0.4695  -0.4509  -0.4100  -0.3441

                    Cartesian Multipole Moments
 -----------------------------------------------------------------
    Charge (ESU x 10^10)
                 0.0000
    Dipole Moment (Debye)
         X       0.0000      Y      -0.1535      Z      -0.2566
       Tot       0.2990
    Quadrupole Moments (Debye-Ang)
        XX     -22.1893     XY       0.0001     YY     -23.3887
        XZ      -0.0000     YZ       0.1927     ZZ     -19.7555

 Total job time:  49.00s(wall), 136.80s(cpu)
        *  Thank you very much for using Q-Chem.  Have a nice day.  *
