 Q-Chem 5.2 (devel), Q-Chem, Inc., Pleasanton, CA (2019)
 Q-Chem 5.2.2 for Intel X86 EM64T Linux

User input:
--------------------------------------------------------------
$rem
   JOBTYPE  sp
   EXCHANGE   omegaB97X-D
   BASIS   6-311+G(2df,2pd)
   max_scf_cycles   250
   geom_opt_max_cycles   1500
   basis2 6-31G*
   scf_algorithm rca_diis
   SYM_IGNORE  TRUE
   print_input   true
   geom_opt_dmax   80
   pop_mulliken false
   XC_GRID 000075000302
$end

$molecule
0 1
C       1.2658740331     -0.0000201185     0.2503940222
C       -0.0000001463     0.0000636536     -0.6118408782
H       1.3045821169     -0.8761535942     0.8903439469
H       1.3045437729     0.8764288717     0.8906798284
H       2.1804247506     -0.0000200603     -0.3829279391
C       -1.2658744034     -0.0000200937     0.2503942124
H       -0.0000001059     -0.7573539874     -1.1723535593
H       -0.0000003046     0.7568197373     -1.1717396675
H       -1.3045821792     -0.8761516734     0.8903428418
H       -2.1804235717     -0.0000196251     -0.3829267071
H       -1.3045440228     0.8764275561     0.8906789184
--------------------------------------------------------------

             Standard Nuclear Orientation (Angstroms)
    I     Atom           X                Y                Z
 ----------------------------------------------------------------
    1      C       1.2658740331    -0.0000201185     0.2503940222
    2      C      -0.0000001463     0.0000636536    -0.6118408782
    3      H       1.3045821169    -0.8761535942     0.8903439469
    4      H       1.3045437729     0.8764288717     0.8906798284
    5      H       2.1804247506    -0.0000200603    -0.3829279391
    6      C      -1.2658744034    -0.0000200937     0.2503942124
    7      H      -0.0000001059    -0.7573539874    -1.1723535593
    8      H      -0.0000003046     0.7568197373    -1.1717396675
    9      H      -1.3045821792    -0.8761516734     0.8903428418
   10      H      -2.1804235717    -0.0000196251    -0.3829267071
   11      H      -1.3045440228     0.8764275561     0.8906789184
 ----------------------------------------------------------------

    7    -119.0627173039      6.17E-06 Convergence criterion met
    5    -119.1087091939      6.92E-06 Convergence criterion met
 Total energy in the final basis set = -119.10870919

                    Orbital Energies (a.u.)
 --------------------------------------------------------------

 Alpha MOs
 -- Occupied --
-10.2644 -10.2644 -10.2393  -0.8905  -0.7733  -0.7016  -0.5619  -0.5193
 -0.4809  -0.4634  -0.4249  -0.4243  -0.4115

                    Cartesian Multipole Moments
 -----------------------------------------------------------------
    Charge (ESU x 10^10)
                -0.0000
    Dipole Moment (Debye)
         X      -0.0000      Y      -0.0003      Z      -0.2224
       Tot       0.2224
    Quadrupole Moments (Debye-Ang)
        XX     -22.2455     XY      -0.0000     YY     -21.1628
        XZ      -0.0000     YZ      -0.0003     ZZ     -21.3627

 Total job time:  44.77s(wall), 124.21s(cpu)
        *  Thank you very much for using Q-Chem.  Have a nice day.  *
