 Q-Chem 5.2 (devel), Q-Chem, Inc., Pleasanton, CA (2019)
 Q-Chem 5.2.2 for Intel X86 EM64T Linux

User input:
--------------------------------------------------------------
$rem
   JOBTYPE  sp
   EXCHANGE   omegaB97X-D
   BASIS   6-311+G(2df,2pd)
   max_scf_cycles   250
   geom_opt_max_cycles   1500
   basis2 6-31G*
   scf_algorithm rca_diis
   SYM_IGNORE  TRUE
   print_input   true
   geom_opt_dmax   80
   pop_mulliken false
   XC_GRID 000075000302
$end

$molecule
0 1
C       1.3964224585     -0.0001383058     0.2615978059
C       -0.0000000437     0.0018674699     -0.3863475930
H       1.6018480873     -0.8842559091     0.8670978311
H       1.6048834101     0.8823946706     0.8686928321
H       2.1047437400     0.0022062252     -0.5699512592
C       -1.3964226392     -0.0001384419     0.2615975664
H       0.0000004684     -0.8603482800     -1.0601440713
H       -0.0000002555     0.8580674148     -1.0673376020
H       -1.6018481823     -0.8842557625     0.8670980138
H       -2.1047441125     0.0022069759     -0.5699511783
H       -1.6048829916     0.8823946089     0.8686926734
--------------------------------------------------------------

             Standard Nuclear Orientation (Angstroms)
    I     Atom           X                Y                Z
 ----------------------------------------------------------------
    1      C       1.3964224585    -0.0001383058     0.2615978059
    2      C      -0.0000000437     0.0018674699    -0.3863475930
    3      H       1.6018480873    -0.8842559091     0.8670978311
    4      H       1.6048834101     0.8823946706     0.8686928321
    5      H       2.1047437400     0.0022062252    -0.5699512592
    6      C      -1.3964226392    -0.0001384419     0.2615975664
    7      H       0.0000004684    -0.8603482800    -1.0601440713
    8      H      -0.0000002555     0.8580674148    -1.0673376020
    9      H      -1.6018481823    -0.8842557625     0.8670980138
   10      H      -2.1047441125     0.0022069759    -0.5699511783
   11      H      -1.6048829916     0.8823946089     0.8686926734
 ----------------------------------------------------------------

    7    -119.0921638923      4.13E-06 Convergence criterion met
    6    -119.1351149907      4.18E-06 Convergence criterion met
 Total energy in the final basis set = -119.13511499

                    Orbital Energies (a.u.)
 --------------------------------------------------------------

 Alpha MOs
 -- Occupied --
-10.2764 -10.2689 -10.2689  -0.8740  -0.7866  -0.6737  -0.5394  -0.5130
 -0.4936  -0.4715  -0.4265  -0.4028  -0.4014

                    Cartesian Multipole Moments
 -----------------------------------------------------------------
    Charge (ESU x 10^10)
                 0.0000
    Dipole Moment (Debye)
         X       0.0000      Y      -0.0012      Z      -0.1496
       Tot       0.1496
    Quadrupole Moments (Debye-Ang)
        XX     -21.9734     XY      -0.0000     YY     -21.4367
        XZ       0.0000     YZ      -0.0125     ZZ     -21.7663

 Total job time:  48.27s(wall), 134.49s(cpu)
        *  Thank you very much for using Q-Chem.  Have a nice day.  *
