 Q-Chem 5.2 (devel), Q-Chem, Inc., Pleasanton, CA (2019)
 Q-Chem 5.2.2 for Intel X86 EM64T Linux

User input:
--------------------------------------------------------------
$rem
   JOBTYPE  sp
   EXCHANGE   omegaB97X-D
   BASIS   6-311+G(2df,2pd)
   max_scf_cycles   250
   geom_opt_max_cycles   1500
   basis2 6-31G*
   scf_algorithm rca_diis
   SYM_IGNORE  TRUE
   print_input   true
   geom_opt_dmax   80
   pop_mulliken false
   XC_GRID 000075000302
$end

$molecule
0 1
C       1.2329055694     0.0001127377     0.1961730896
C       -0.0000004673     0.0007969990     -0.6223367125
H       1.4360569401     -0.8086456024     0.9072595985
H       1.4330091030     0.8089269667     0.9079564077
H       2.2286274862     -0.0011297491     -0.2584459783
C       -1.2329065438     0.0001128892     0.1961734170
H       0.0000002904     -0.8761435468     -1.2705985034
H       -0.0000005611     0.8768167217     -1.2719062565
H       -1.4360554552     -0.8086453081     0.9072607074
H       -2.2286271991     -0.0011282398     -0.2584479940
H       -1.4330092232     0.8089267978     0.9079572435
--------------------------------------------------------------

             Standard Nuclear Orientation (Angstroms)
    I     Atom           X                Y                Z
 ----------------------------------------------------------------
    1      C       1.2329055694     0.0001127377     0.1961730896
    2      C      -0.0000004673     0.0007969990    -0.6223367125
    3      H       1.4360569401    -0.8086456024     0.9072595985
    4      H       1.4330091030     0.8089269667     0.9079564077
    5      H       2.2286274862    -0.0011297491    -0.2584459783
    6      C      -1.2329065438     0.0001128892     0.1961734170
    7      H       0.0000002904    -0.8761435468    -1.2705985034
    8      H      -0.0000005611     0.8768167217    -1.2719062565
    9      H      -1.4360554552    -0.8086453081     0.9072607074
   10      H      -2.2286271991    -0.0011282398    -0.2584479940
   11      H      -1.4330092232     0.8089267978     0.9079572435
 ----------------------------------------------------------------

    7    -119.0740159175      4.75E-06 Convergence criterion met
    6    -119.1189821145      3.94E-06 Convergence criterion met
 Total energy in the final basis set = -119.11898211

                    Orbital Energies (a.u.)
 --------------------------------------------------------------

 Alpha MOs
 -- Occupied --
-10.2812 -10.2636 -10.2636  -0.8911  -0.7858  -0.6984  -0.5418  -0.5289
 -0.5007  -0.4425  -0.4211  -0.4186  -0.3969

                    Cartesian Multipole Moments
 -----------------------------------------------------------------
    Charge (ESU x 10^10)
                 0.0000
    Dipole Moment (Debye)
         X       0.0000      Y      -0.0024      Z       0.0171
       Tot       0.0172
    Quadrupole Moments (Debye-Ang)
        XX     -21.0067     XY      -0.0000     YY     -22.0056
        XZ       0.0000     YZ       0.0010     ZZ     -21.6755

 Total job time:  48.69s(wall), 135.73s(cpu)
        *  Thank you very much for using Q-Chem.  Have a nice day.  *
