 Q-Chem 5.2 (devel), Q-Chem, Inc., Pleasanton, CA (2019)
 Q-Chem 5.2.2 for Intel X86 EM64T Linux

User input:
--------------------------------------------------------------
$rem
   JOBTYPE  sp
   EXCHANGE   omegaB97X-D
   BASIS   6-311+G(2df,2pd)
   max_scf_cycles   250
   geom_opt_max_cycles   1500
   basis2 6-31G*
   scf_algorithm rca_diis
   SYM_IGNORE  TRUE
   print_input   true
   geom_opt_dmax   80
   pop_mulliken false
   XC_GRID 000075000302
$end

$molecule
0 1
C       1.2899864848     -0.0001492293     0.3098917391
C       0.0000004392     -0.0006051162     -0.5557264249
H       1.2006058391     -0.9178916166     0.8896051147
H       1.2026194682     0.9179337111     0.8894569620
H       2.0924290140     0.0006838334     -0.4244200082
C       -1.2899855893     -0.0001491909     0.3098915083
H       -0.0000000200     -0.8723797957     -1.2166066796
H       0.0000003582     0.8718320822     -1.2156897425
H       -1.2006069255     -0.9178918565     0.8896047709
H       -2.0924295850     0.0006838346     -0.4244188101
H       -1.2026195445     0.9179340098     0.8894565890
--------------------------------------------------------------

             Standard Nuclear Orientation (Angstroms)
    I     Atom           X                Y                Z
 ----------------------------------------------------------------
    1      C       1.2899864848    -0.0001492293     0.3098917391
    2      C       0.0000004392    -0.0006051162    -0.5557264249
    3      H       1.2006058391    -0.9178916166     0.8896051147
    4      H       1.2026194682     0.9179337111     0.8894569620
    5      H       2.0924290140     0.0006838334    -0.4244200082
    6      C      -1.2899855893    -0.0001491909     0.3098915083
    7      H      -0.0000000200    -0.8723797957    -1.2166066796
    8      H       0.0000003582     0.8718320822    -1.2156897425
    9      H      -1.2006069255    -0.9178918565     0.8896047709
   10      H      -2.0924295850     0.0006838346    -0.4244188101
   11      H      -1.2026195445     0.9179340098     0.8894565890
 ----------------------------------------------------------------

    7    -119.0884674455      5.26E-06 Convergence criterion met
    6    -119.1318550234      4.30E-06 Convergence criterion met
 Total energy in the final basis set = -119.13185502

                    Orbital Energies (a.u.)
 --------------------------------------------------------------

 Alpha MOs
 -- Occupied --
-10.2715 -10.2672 -10.2672  -0.8803  -0.7759  -0.6673  -0.5536  -0.5262
 -0.4846  -0.4756  -0.4115  -0.4099  -0.4006

                    Cartesian Multipole Moments
 -----------------------------------------------------------------
    Charge (ESU x 10^10)
                -0.0000
    Dipole Moment (Debye)
         X      -0.0000      Y       0.0015      Z      -0.2241
       Tot       0.2241
    Quadrupole Moments (Debye-Ang)
        XX     -23.2345     XY       0.0000     YY     -21.0299
        XZ      -0.0000     YZ       0.0010     ZZ     -22.0703

 Total job time:  47.56s(wall), 132.81s(cpu)
        *  Thank you very much for using Q-Chem.  Have a nice day.  *
