 Q-Chem 5.2 (devel), Q-Chem, Inc., Pleasanton, CA (2019)
 Q-Chem 5.2.2 for Intel X86 EM64T Linux

User input:
--------------------------------------------------------------
$rem
   JOBTYPE  sp
   EXCHANGE   omegaB97X-D
   BASIS   6-311+G(2df,2pd)
   max_scf_cycles   250
   geom_opt_max_cycles   1500
   basis2 6-31G*
   scf_algorithm rca_diis
   SYM_IGNORE  TRUE
   print_input   true
   geom_opt_dmax   80
   pop_mulliken false
   XC_GRID 000075000302
$end

$molecule
0 1
C       1.2475897254     0.0966418439     0.2770401415
C       -0.0000001536     -0.1158506767     -0.6066481695
H       1.2123206109     -0.8261502735     0.8668109769
H       1.4640578715     0.9096959522     0.9666729266
H       2.0868835722     -0.1005617155     -0.3914995999
C       -1.2475900490     0.0966419813     0.2770400474
H       -0.0000008393     -0.8951088124     -1.3721574081
H       0.0000008619     0.8517089978     -1.1181980578
H       -1.2123209337     -0.8261502511     0.8668106805
H       -2.0868836791     -0.1005623342     -0.3914997167
H       -1.4640570477     0.9096959542     0.9666731982
--------------------------------------------------------------

             Standard Nuclear Orientation (Angstroms)
    I     Atom           X                Y                Z
 ----------------------------------------------------------------
    1      C       1.2475897254     0.0966418439     0.2770401415
    2      C      -0.0000001536    -0.1158506767    -0.6066481695
    3      H       1.2123206109    -0.8261502735     0.8668109769
    4      H       1.4640578715     0.9096959522     0.9666729266
    5      H       2.0868835722    -0.1005617155    -0.3914995999
    6      C      -1.2475900490     0.0966419813     0.2770400474
    7      H      -0.0000008393    -0.8951088124    -1.3721574081
    8      H       0.0000008619     0.8517089978    -1.1181980578
    9      H      -1.2123209337    -0.8261502511     0.8668106805
   10      H      -2.0868836791    -0.1005623342    -0.3914997167
   11      H      -1.4640570477     0.9096959542     0.9666731982
 ----------------------------------------------------------------

    7    -119.0581378785      4.31E-06 Convergence criterion met
    5    -119.1023908169      8.69E-06 Convergence criterion met
 Total energy in the final basis set = -119.10239082

                    Orbital Energies (a.u.)
 --------------------------------------------------------------

 Alpha MOs
 -- Occupied --
-10.2812 -10.2654 -10.2654  -0.8825  -0.7765  -0.6803  -0.5456  -0.5196
 -0.5024  -0.4570  -0.4483  -0.3924  -0.3711

                    Cartesian Multipole Moments
 -----------------------------------------------------------------
    Charge (ESU x 10^10)
                -0.0000
    Dipole Moment (Debye)
         X       0.0000      Y      -0.0235      Z      -0.1341
       Tot       0.1361
    Quadrupole Moments (Debye-Ang)
        XX     -22.7710     XY       0.0000     YY     -21.3254
        XZ       0.0000     YZ       1.3105     ZZ     -21.5749

 Total job time:  44.32s(wall), 122.95s(cpu)
        *  Thank you very much for using Q-Chem.  Have a nice day.  *
