 Q-Chem 5.2 (devel), Q-Chem, Inc., Pleasanton, CA (2019)
 Q-Chem 5.2.2 for Intel X86 EM64T Linux

User input:
--------------------------------------------------------------
$rem
   JOBTYPE  sp
   EXCHANGE   omegaB97X-D
   BASIS   6-311+G(2df,2pd)
   max_scf_cycles   250
   geom_opt_max_cycles   1500
   basis2 6-31G*
   scf_algorithm rca_diis
   SYM_IGNORE  TRUE
   print_input   true
   geom_opt_dmax   80
   pop_mulliken false
   XC_GRID 000075000302
$end

$molecule
0 1
C       1.2446350948     -0.0000125366     0.2444305947
C       -0.0188164401     -0.0000001787     -0.5873554709
H       1.2979531047     -0.9888272200     0.9729895969
H       1.2979688294     0.9888540715     0.9730159519
H       2.2373934333     0.0000008309     -0.4399246360
C       -1.2896292015     0.0000122971     0.2743641981
H       -0.0241033450     -0.8738744740     -1.2431579962
H       -0.0240856327     0.8738744653     -1.2431581085
H       -1.3147933951     -0.7718539766     0.8350235217
H       -2.0917408518     0.0000019555     -0.2801773378
H       -1.3147816566     0.7718254317     0.8349947049
--------------------------------------------------------------

             Standard Nuclear Orientation (Angstroms)
    I     Atom           X                Y                Z
 ----------------------------------------------------------------
    1      C       1.2446350948    -0.0000125366     0.2444305947
    2      C      -0.0188164401    -0.0000001787    -0.5873554709
    3      H       1.2979531047    -0.9888272200     0.9729895969
    4      H       1.2979688294     0.9888540715     0.9730159519
    5      H       2.2373934333     0.0000008309    -0.4399246360
    6      C      -1.2896292015     0.0000122971     0.2743641981
    7      H      -0.0241033450    -0.8738744740    -1.2431579962
    8      H      -0.0240856327     0.8738744653    -1.2431581085
    9      H      -1.3147933951    -0.7718539766     0.8350235217
   10      H      -2.0917408518     0.0000019555    -0.2801773378
   11      H      -1.3147816566     0.7718254317     0.8349947049
 ----------------------------------------------------------------

    7    -119.0357577450      5.86E-06 Convergence criterion met
    6    -119.0811862988      4.06E-06 Convergence criterion met
 Total energy in the final basis set = -119.08118630

                    Orbital Energies (a.u.)
 --------------------------------------------------------------

 Alpha MOs
 -- Occupied --
-10.3039 -10.2753 -10.2217  -0.8875  -0.7855  -0.6725  -0.5517  -0.5302
 -0.4823  -0.4679  -0.4285  -0.4062  -0.4023

                    Cartesian Multipole Moments
 -----------------------------------------------------------------
    Charge (ESU x 10^10)
                 0.0000
    Dipole Moment (Debye)
         X      -0.2931      Y      -0.0000      Z      -0.1169
       Tot       0.3156
    Quadrupole Moments (Debye-Ang)
        XX     -22.1446     XY      -0.0000     YY     -21.3500
        XZ      -0.2936     YZ      -0.0000     ZZ     -21.8015

 Total job time:  48.51s(wall), 134.67s(cpu)
        *  Thank you very much for using Q-Chem.  Have a nice day.  *
