 Q-Chem 5.2 (devel), Q-Chem, Inc., Pleasanton, CA (2019)
 Q-Chem 5.2.2 for Intel X86 EM64T Linux

User input:
--------------------------------------------------------------
$rem
   JOBTYPE  sp
   EXCHANGE   omegaB97X-D
   BASIS   6-311+G(2df,2pd)
   max_scf_cycles   250
   geom_opt_max_cycles   1500
   basis2 6-31G*
   scf_algorithm rca_diis
   SYM_IGNORE  TRUE
   print_input   true
   geom_opt_dmax   80
   pop_mulliken false
   XC_GRID 000075000302
$end

$molecule
0 1
C       1.2558240882     -0.0189073834     0.3066189350
C       0.0000000420     0.0162610526     -0.6151854535
H       1.4023827823     -0.8975820808     0.9343390925
H       1.3672188011     0.8829467771     0.9114971240
H       2.0835119829     0.0222073731     -0.4063222250
C       -1.2558241425     -0.0189073461     0.3066189972
H       -0.0000001779     -0.8736356304     -1.2510654905
H       0.0000000272     0.8800451935     -1.2849699887
H       -1.4023826912     -0.8975820382     0.9343391520
H       -2.0835118291     0.0222079588     -0.4063223332
H       -1.3672189434     0.8829467898     0.9114972092
--------------------------------------------------------------

             Standard Nuclear Orientation (Angstroms)
    I     Atom           X                Y                Z
 ----------------------------------------------------------------
    1      C       1.2558240882    -0.0189073834     0.3066189350
    2      C       0.0000000420     0.0162610526    -0.6151854535
    3      H       1.4023827823    -0.8975820808     0.9343390925
    4      H       1.3672188011     0.8829467771     0.9114971240
    5      H       2.0835119829     0.0222073731    -0.4063222250
    6      C      -1.2558241425    -0.0189073461     0.3066189972
    7      H      -0.0000001779    -0.8736356304    -1.2510654905
    8      H       0.0000000272     0.8800451935    -1.2849699887
    9      H      -1.4023826912    -0.8975820382     0.9343391520
   10      H      -2.0835118291     0.0222079588    -0.4063223332
   11      H      -1.3672189434     0.8829467898     0.9114972092
 ----------------------------------------------------------------

    7    -119.0927951874      1.82E-06 Convergence criterion met
    5    -119.1356308572      8.50E-06 Convergence criterion met
 Total energy in the final basis set = -119.13563086

                    Orbital Energies (a.u.)
 --------------------------------------------------------------

 Alpha MOs
 -- Occupied --
-10.2819 -10.2651 -10.2651  -0.8730  -0.7737  -0.6809  -0.5411  -0.5105
 -0.4880  -0.4655  -0.4341  -0.4140  -0.3875

                    Cartesian Multipole Moments
 -----------------------------------------------------------------
    Charge (ESU x 10^10)
                 0.0000
    Dipole Moment (Debye)
         X       0.0000      Y       0.0127      Z      -0.1536
       Tot       0.1542
    Quadrupole Moments (Debye-Ang)
        XX     -22.7986     XY      -0.0000     YY     -21.2050
        XZ       0.0000     YZ      -0.2428     ZZ     -21.4278

 Total job time:  43.54s(wall), 120.52s(cpu)
        *  Thank you very much for using Q-Chem.  Have a nice day.  *
