 Q-Chem 5.2 (devel), Q-Chem, Inc., Pleasanton, CA (2019)
 Q-Chem 5.2.2 for Intel X86 EM64T Linux

User input:
--------------------------------------------------------------
$rem
   JOBTYPE  sp
   EXCHANGE   omegaB97X-D
   BASIS   6-311+G(2df,2pd)
   max_scf_cycles   250
   geom_opt_max_cycles   1500
   basis2 6-31G*
   scf_algorithm rca_diis
   SYM_IGNORE  TRUE
   print_input   true
   geom_opt_dmax   80
   pop_mulliken false
   XC_GRID 000075000302
$end

$molecule
0 1
C       1.2710992926     0.0083912206     0.2356904341
C       -0.0000000225     -0.0076793860     -0.5736167843
H       1.2523960524     -0.8691080979     0.8869361166
H       1.2704671941     0.8765088856     0.8981259319
H       2.2000591293     -0.0104435679     -0.3325055158
C       -1.2710992695     0.0083912847     0.2356904024
H       0.0000001470     -0.8737154592     -1.2388143407
H       -0.0000001570     0.8706977488     -1.2230177536
H       -1.2523960670     -0.8691079975     0.8869361195
H       -2.2000591915     -0.0104429728     -0.3325054505
H       -1.2704671685     0.8765090075     0.8981258593
--------------------------------------------------------------

             Standard Nuclear Orientation (Angstroms)
    I     Atom           X                Y                Z
 ----------------------------------------------------------------
    1      C       1.2710992926     0.0083912206     0.2356904341
    2      C      -0.0000000225    -0.0076793860    -0.5736167843
    3      H       1.2523960524    -0.8691080979     0.8869361166
    4      H       1.2704671941     0.8765088856     0.8981259319
    5      H       2.2000591293    -0.0104435679    -0.3325055158
    6      C      -1.2710992695     0.0083912847     0.2356904024
    7      H       0.0000001470    -0.8737154592    -1.2388143407
    8      H      -0.0000001570     0.8706977488    -1.2230177536
    9      H      -1.2523960670    -0.8691079975     0.8869361195
   10      H      -2.2000591915    -0.0104429728    -0.3325054505
   11      H      -1.2704671685     0.8765090075     0.8981258593
 ----------------------------------------------------------------

    7    -119.1000753723      4.46E-06 Convergence criterion met
    6    -119.1433279404      4.08E-06 Convergence criterion met
 Total energy in the final basis set = -119.14332794

                    Orbital Energies (a.u.)
 --------------------------------------------------------------

 Alpha MOs
 -- Occupied --
-10.2710 -10.2652 -10.2651  -0.8866  -0.7795  -0.6764  -0.5487  -0.5314
 -0.4806  -0.4610  -0.4339  -0.4116  -0.4009

                    Cartesian Multipole Moments
 -----------------------------------------------------------------
    Charge (ESU x 10^10)
                 0.0000
    Dipole Moment (Debye)
         X      -0.0000      Y      -0.0064      Z      -0.0639
       Tot       0.0642
    Quadrupole Moments (Debye-Ang)
        XX     -21.8310     XY      -0.0000     YY     -21.4741
        XZ      -0.0000     YZ       0.1119     ZZ     -22.0741

 Total job time:  49.10s(wall), 136.58s(cpu)
        *  Thank you very much for using Q-Chem.  Have a nice day.  *
