 Q-Chem 5.2 (devel), Q-Chem, Inc., Pleasanton, CA (2019)
 Q-Chem 5.2.2 for Intel X86 EM64T Linux

User input:
--------------------------------------------------------------
$rem
   JOBTYPE  sp
   EXCHANGE   omegaB97X-D
   BASIS   6-311+G(2df,2pd)
   max_scf_cycles   250
   geom_opt_max_cycles   1500
   basis2 6-31G*
   scf_algorithm rca_diis
   SYM_IGNORE  TRUE
   print_input   true
   geom_opt_dmax   80
   pop_mulliken false
   XC_GRID 000075000302
$end

$molecule
0 1
C       1.2557032603     0.0051636104     0.2706839037
C       -0.0076680310     -0.0002992799     -0.5869561840
H       1.3304770484     -0.9137019102     0.8557838767
H       1.2830538498     0.9154614576     0.8693684873
H       2.1733240226     -0.0269308722     -0.3207871339
C       -1.2785960266     -0.0061003242     0.2487973912
H       0.0145386148     -0.8738880192     -1.2427811382
H       -0.0051223272     0.8737157884     -1.2425840612
H       -1.2824167742     -0.8433439642     0.9495917328
H       -2.1544533545     0.0272429075     -0.3970485203
H       -1.3288403429     0.8426812720     0.9369766649
--------------------------------------------------------------

             Standard Nuclear Orientation (Angstroms)
    I     Atom           X                Y                Z
 ----------------------------------------------------------------
    1      C       1.2557032603     0.0051636104     0.2706839037
    2      C      -0.0076680310    -0.0002992799    -0.5869561840
    3      H       1.3304770484    -0.9137019102     0.8557838767
    4      H       1.2830538498     0.9154614576     0.8693684873
    5      H       2.1733240226    -0.0269308722    -0.3207871339
    6      C      -1.2785960266    -0.0061003242     0.2487973912
    7      H       0.0145386148    -0.8738880192    -1.2427811382
    8      H      -0.0051223272     0.8737157884    -1.2425840612
    9      H      -1.2824167742    -0.8433439642     0.9495917328
   10      H      -2.1544533545     0.0272429075    -0.3970485203
   11      H      -1.3288403429     0.8426812720     0.9369766649
 ----------------------------------------------------------------

    7    -119.0996311300      4.72E-06 Convergence criterion met
    6    -119.1427332730      3.88E-06 Convergence criterion met
 Total energy in the final basis set = -119.14273327

                    Orbital Energies (a.u.)
 --------------------------------------------------------------

 Alpha MOs
 -- Occupied --
-10.2740 -10.2653 -10.2651  -0.8813  -0.7775  -0.6781  -0.5465  -0.5259
 -0.4830  -0.4629  -0.4208  -0.4151  -0.4048

                    Cartesian Multipole Moments
 -----------------------------------------------------------------
    Charge (ESU x 10^10)
                -0.0000
    Dipole Moment (Debye)
         X       0.0395      Y       0.0019      Z      -0.0849
       Tot       0.0937
    Quadrupole Moments (Debye-Ang)
        XX     -22.1627     XY      -0.2432     YY     -21.3807
        XZ       0.0058     YZ       0.0035     ZZ     -21.8440

 Total job time:  49.01s(wall), 136.44s(cpu)
        *  Thank you very much for using Q-Chem.  Have a nice day.  *
