 Q-Chem 5.2 (devel), Q-Chem, Inc., Pleasanton, CA (2019)
 Q-Chem 5.2.2 for Intel X86 EM64T Linux

User input:
--------------------------------------------------------------
$rem
   JOBTYPE  sp
   EXCHANGE   omegaB97X-D
   BASIS   6-311+G(2df,2pd)
   max_scf_cycles   250
   geom_opt_max_cycles   1500
   basis2 6-31G*
   scf_algorithm rca_diis
   SYM_IGNORE  TRUE
   print_input   true
   geom_opt_dmax   80
   pop_mulliken false
   XC_GRID 000075000302
$end

$molecule
0 1
C       1.2275833061     -0.0009156374     0.2978793243
C       -0.0118052608     -0.0000023805     -0.5875014350
H       1.2611942642     -0.8157495308     0.8842123013
H       1.2619517925     0.8192555777     0.8877901221
H       2.2969949451     -0.0011734473     -0.4214190845
C       -1.3056282150     0.0009081498     0.2196417788
H       -0.0002899069     -0.8738340090     -1.2432538521
H       0.0002046033     0.8738614146     -1.2432485761
H       -1.3487080752     -0.9444871711     0.9232495254
H       -2.0336292929     0.0011064457     -0.2960112365
H       -1.3478682211     0.9410312543     0.9197061513
--------------------------------------------------------------

             Standard Nuclear Orientation (Angstroms)
    I     Atom           X                Y                Z
 ----------------------------------------------------------------
    1      C       1.2275833061    -0.0009156374     0.2978793243
    2      C      -0.0118052608    -0.0000023805    -0.5875014350
    3      H       1.2611942642    -0.8157495308     0.8842123013
    4      H       1.2619517925     0.8192555777     0.8877901221
    5      H       2.2969949451    -0.0011734473    -0.4214190845
    6      C      -1.3056282150     0.0009081498     0.2196417788
    7      H      -0.0002899069    -0.8738340090    -1.2432538521
    8      H       0.0002046033     0.8738614146    -1.2432485761
    9      H      -1.3487080752    -0.9444871711     0.9232495254
   10      H      -2.0336292929     0.0011064457    -0.2960112365
   11      H      -1.3478682211     0.9410312543     0.9197061513
 ----------------------------------------------------------------

    7    -119.0309121577      6.04E-06 Convergence criterion met
    5    -119.0768497769      9.14E-06 Convergence criterion met
 Total energy in the final basis set = -119.07684978

                    Orbital Energies (a.u.)
 --------------------------------------------------------------

 Alpha MOs
 -- Occupied --
-10.2757 -10.2659 -10.2619  -0.8856  -0.7879  -0.6845  -0.5499  -0.5343
 -0.4782  -0.4671  -0.4277  -0.4063  -0.4052

                    Cartesian Multipole Moments
 -----------------------------------------------------------------
    Charge (ESU x 10^10)
                 0.0000
    Dipole Moment (Debye)
         X      -0.2455      Y       0.0025      Z      -0.0639
       Tot       0.2537
    Quadrupole Moments (Debye-Ang)
        XX     -22.4446     XY      -0.0126     YY     -21.3552
        XZ       0.3807     YZ       0.0013     ZZ     -21.7671

 Total job time:  44.74s(wall), 123.98s(cpu)
        *  Thank you very much for using Q-Chem.  Have a nice day.  *
