 Q-Chem 5.2 (devel), Q-Chem, Inc., Pleasanton, CA (2019)
 Q-Chem 5.2.2 for Intel X86 EM64T Linux

User input:
--------------------------------------------------------------
$rem
   JOBTYPE  sp
   EXCHANGE   omegaB97X-D
   BASIS   6-311+G(2df,2pd)
   max_scf_cycles   250
   geom_opt_max_cycles   1500
   basis2 6-31G*
   scf_algorithm rca_diis
   SYM_IGNORE  TRUE
   print_input   true
   geom_opt_dmax   80
   pop_mulliken false
   XC_GRID 000075000302
$end

$molecule
0 1
C       1.2668658855     0.0159835441     0.2597770894
C       -0.0000786600     0.0000007427     -0.5871611534
H       1.3128956946     -0.9100278411     0.9332415952
H       1.2974700950     0.8505392517     0.8740719192
H       2.1654022556     0.0177330818     -0.3603800064
C       -1.2673407022     -0.0159852835     0.2593166046
H       0.0061913085     -0.8738523239     -1.2429813979
H       -0.0062028345     0.8738538439     -1.2429799209
H       -1.2980539737     -0.8514306689     0.8742286466
H       -2.1636503873     -0.0177304161     -0.3594786666
H       -1.3134987421     0.9109167352     0.9333903092
--------------------------------------------------------------

             Standard Nuclear Orientation (Angstroms)
    I     Atom           X                Y                Z
 ----------------------------------------------------------------
    1      C       1.2668658855     0.0159835441     0.2597770894
    2      C      -0.0000786600     0.0000007427    -0.5871611534
    3      H       1.3128956946    -0.9100278411     0.9332415952
    4      H       1.2974700950     0.8505392517     0.8740719192
    5      H       2.1654022556     0.0177330818    -0.3603800064
    6      C      -1.2673407022    -0.0159852835     0.2593166046
    7      H       0.0061913085    -0.8738523239    -1.2429813979
    8      H      -0.0062028345     0.8738538439    -1.2429799209
    9      H      -1.2980539737    -0.8514306689     0.8742286466
   10      H      -2.1636503873    -0.0177304161    -0.3594786666
   11      H      -1.3134987421     0.9109167352     0.9333903092
 ----------------------------------------------------------------

    7    -119.0957341784      4.70E-06 Convergence criterion met
    5    -119.1389475536      9.97E-06 Convergence criterion met
 Total energy in the final basis set = -119.13894755

                    Orbital Energies (a.u.)
 --------------------------------------------------------------

 Alpha MOs
 -- Occupied --
-10.2745 -10.2648 -10.2647  -0.8817  -0.7782  -0.6787  -0.5463  -0.5244
 -0.4830  -0.4642  -0.4189  -0.4171  -0.4070

                    Cartesian Multipole Moments
 -----------------------------------------------------------------
    Charge (ESU x 10^10)
                 0.0000
    Dipole Moment (Debye)
         X      -0.0017      Y      -0.0003      Z      -0.0969
       Tot       0.0969
    Quadrupole Moments (Debye-Ang)
        XX     -22.1681     XY       0.2047     YY     -21.3626
        XZ       0.0024     YZ      -0.0001     ZZ     -21.8509

 Total job time:  44.20s(wall), 122.51s(cpu)
        *  Thank you very much for using Q-Chem.  Have a nice day.  *
