 Q-Chem 5.2 (devel), Q-Chem, Inc., Pleasanton, CA (2019)
 Q-Chem 5.2.2 for Intel X86 EM64T Linux

User input:
--------------------------------------------------------------
$rem
   JOBTYPE  sp
   EXCHANGE   omegaB97X-D
   BASIS   6-311+G(2df,2pd)
   max_scf_cycles   250
   geom_opt_max_cycles   1500
   basis2 6-31G*
   scf_algorithm rca_diis
   SYM_IGNORE  TRUE
   print_input   true
   geom_opt_dmax   80
   pop_mulliken false
   XC_GRID 000075000302
$end

$molecule
0 1
C       1.2672753245     -0.0319674661     0.2592276039
C       0.0001573947     0.0000006332     -0.5870204077
H       1.2912298105     -0.8223258930     0.8444505415
H       1.3221415750     0.9412979664     0.9627653232
H       2.1625049133     -0.0354519505     -0.3588324185
C       -1.2663257313     0.0319569041     0.2601483873
H       -0.0123792900     -0.8737881892     -1.2428318181
H       0.0124025046     0.8737980094     -1.2428315490
H       -1.3209166838     -0.9395206661     0.9624723109
H       -2.1660087469     0.0354580364     -0.3606351391
H       -1.2900811311     0.8205432814     0.8441321845
--------------------------------------------------------------

             Standard Nuclear Orientation (Angstroms)
    I     Atom           X                Y                Z
 ----------------------------------------------------------------
    1      C       1.2672753245    -0.0319674661     0.2592276039
    2      C       0.0001573947     0.0000006332    -0.5870204077
    3      H       1.2912298105    -0.8223258930     0.8444505415
    4      H       1.3221415750     0.9412979664     0.9627653232
    5      H       2.1625049133    -0.0354519505    -0.3588324185
    6      C      -1.2663257313     0.0319569041     0.2601483873
    7      H      -0.0123792900    -0.8737881892    -1.2428318181
    8      H       0.0124025046     0.8737980094    -1.2428315490
    9      H      -1.3209166838    -0.9395206661     0.9624723109
   10      H      -2.1660087469     0.0354580364    -0.3606351391
   11      H      -1.2900811311     0.8205432814     0.8441321845
 ----------------------------------------------------------------

    7    -119.0727427817      5.23E-06 Convergence criterion met
    5    -119.1169002570      9.61E-06 Convergence criterion met
 Total energy in the final basis set = -119.11690026

                    Orbital Energies (a.u.)
 --------------------------------------------------------------

 Alpha MOs
 -- Occupied --
-10.2751 -10.2643 -10.2642  -0.8832  -0.7815  -0.6816  -0.5480  -0.5251
 -0.4841  -0.4661  -0.4195  -0.4151  -0.4052

                    Cartesian Multipole Moments
 -----------------------------------------------------------------
    Charge (ESU x 10^10)
                 0.0000
    Dipole Moment (Debye)
         X       0.0033      Y      -0.0011      Z      -0.1308
       Tot       0.1309
    Quadrupole Moments (Debye-Ang)
        XX     -22.1701     XY      -0.4071     YY     -21.3607
        XZ      -0.0048     YZ      -0.0006     ZZ     -21.8749

 Total job time:  44.22s(wall), 122.71s(cpu)
        *  Thank you very much for using Q-Chem.  Have a nice day.  *
