 Q-Chem 5.2 (devel), Q-Chem, Inc., Pleasanton, CA (2019)
 Q-Chem 5.2.2 for Intel X86 EM64T Linux

User input:
--------------------------------------------------------------
$rem
   JOBTYPE  sp
   EXCHANGE   omegaB97X-D
   BASIS   6-311+G(2df,2pd)
   max_scf_cycles   250
   geom_opt_max_cycles   1500
   basis2 6-31G*
   scf_algorithm rca_diis
   SYM_IGNORE  TRUE
   print_input   true
   geom_opt_dmax   80
   pop_mulliken false
   XC_GRID 000075000302
$end

$molecule
0 1
C       1.2214393543     0.0001192822     0.1774917444
C       -0.0000005912     0.0010340905     -0.6316634791
H       1.4749074814     -0.7813592398     0.9048156247
H       1.4708332341     0.7818158635     0.9058539292
H       2.2414067396     -0.0015259074     -0.2235320728
C       -1.2214405819     0.0001194853     0.1774921934
H       0.0000003950     -0.8769053594     -1.2774158034
H       -0.0000006799     0.8777698564     -1.2791345894
H       -1.4749055455     -0.7813589335     0.9048171855
H       -2.2414064637     -0.0015240808     -0.2235348134
H       -1.4708334026     0.7818156090     0.9058550998
--------------------------------------------------------------

             Standard Nuclear Orientation (Angstroms)
    I     Atom           X                Y                Z
 ----------------------------------------------------------------
    1      C       1.2214393543     0.0001192822     0.1774917444
    2      C      -0.0000005912     0.0010340905    -0.6316634791
    3      H       1.4749074814    -0.7813592398     0.9048156247
    4      H       1.4708332341     0.7818158635     0.9058539292
    5      H       2.2414067396    -0.0015259074    -0.2235320728
    6      C      -1.2214405819     0.0001194853     0.1774921934
    7      H       0.0000003950    -0.8769053594    -1.2774158034
    8      H      -0.0000006799     0.8777698564    -1.2791345894
    9      H      -1.4749055455    -0.7813589335     0.9048171855
   10      H      -2.2414064637    -0.0015240808    -0.2235348134
   11      H      -1.4708334026     0.7818156090     0.9058550998
 ----------------------------------------------------------------

    7    -119.0521158556      5.05E-06 Convergence criterion met
    6    -119.0985505947      4.15E-06 Convergence criterion met
 Total energy in the final basis set = -119.09855059

                    Orbital Energies (a.u.)
 --------------------------------------------------------------

 Alpha MOs
 -- Occupied --
-10.2836 -10.2636 -10.2636  -0.8957  -0.7905  -0.7068  -0.5421  -0.5322
 -0.5114  -0.4350  -0.4165  -0.4160  -0.3918

                    Cartesian Multipole Moments
 -----------------------------------------------------------------
    Charge (ESU x 10^10)
                -0.0000
    Dipole Moment (Debye)
         X       0.0000      Y      -0.0035      Z       0.0468
       Tot       0.0469
    Quadrupole Moments (Debye-Ang)
        XX     -20.6694     XY      -0.0000     YY     -22.2487
        XZ       0.0000     YZ       0.0019     ZZ     -21.6582

 Total job time:  47.78s(wall), 133.15s(cpu)
        *  Thank you very much for using Q-Chem.  Have a nice day.  *
