 Q-Chem 5.2 (devel), Q-Chem, Inc., Pleasanton, CA (2019)
 Q-Chem 5.2.2 for Intel X86 EM64T Linux

User input:
--------------------------------------------------------------
$rem
   JOBTYPE  sp
   EXCHANGE   omegaB97X-D
   BASIS   6-311+G(2df,2pd)
   max_scf_cycles   250
   geom_opt_max_cycles   1500
   basis2 6-31G*
   scf_algorithm rca_diis
   SYM_IGNORE  TRUE
   print_input   true
   geom_opt_dmax   80
   pop_mulliken false
   XC_GRID 000075000302
$end

$molecule
0 1
C       1.2524372522     -0.0556643868     0.2809719502
C       -0.0071198990     0.0002371742     -0.5849006444
H       1.4049246286     -0.8671048972     0.9923833181
H       1.2381241753     0.8914832086     0.8267695991
H       2.1216410576     0.0107796244     -0.3752354928
C       -1.2792553984     0.0547949444     0.2426566313
H       -0.1235672719     -0.8648783559     -1.2419940624
H       0.1659965380     0.8604554015     -1.2359087909
H       -1.2065554601     -0.8801664300     0.8057962374
H       -2.1960815891     -0.0088275031     -0.3430815623
H       -1.3705440937     0.8588918859     0.9735878358
--------------------------------------------------------------

             Standard Nuclear Orientation (Angstroms)
    I     Atom           X                Y                Z
 ----------------------------------------------------------------
    1      C       1.2524372522    -0.0556643868     0.2809719502
    2      C      -0.0071198990     0.0002371742    -0.5849006444
    3      H       1.4049246286    -0.8671048972     0.9923833181
    4      H       1.2381241753     0.8914832086     0.8267695991
    5      H       2.1216410576     0.0107796244    -0.3752354928
    6      C      -1.2792553984     0.0547949444     0.2426566313
    7      H      -0.1235672719    -0.8648783559    -1.2419940624
    8      H       0.1659965380     0.8604554015    -1.2359087909
    9      H      -1.2065554601    -0.8801664300     0.8057962374
   10      H      -2.1960815891    -0.0088275031    -0.3430815623
   11      H      -1.3705440937     0.8588918859     0.9735878358
 ----------------------------------------------------------------

    7    -119.0944762071      4.65E-06 Convergence criterion met
    6    -119.1376799241      3.97E-06 Convergence criterion met
 Total energy in the final basis set = -119.13767992

                    Orbital Energies (a.u.)
 --------------------------------------------------------------

 Alpha MOs
 -- Occupied --
-10.2757 -10.2659 -10.2649  -0.8833  -0.7785  -0.6775  -0.5487  -0.5255
 -0.4814  -0.4652  -0.4184  -0.4141  -0.4058

                    Cartesian Multipole Moments
 -----------------------------------------------------------------
    Charge (ESU x 10^10)
                -0.0000
    Dipole Moment (Debye)
         X       0.0246      Y      -0.0076      Z      -0.0767
       Tot       0.0809
    Quadrupole Moments (Debye-Ang)
        XX     -22.1207     XY       0.0612     YY     -21.4473
        XZ       0.0246     YZ       0.0058     ZZ     -21.8510

 Total job time:  48.90s(wall), 136.37s(cpu)
        *  Thank you very much for using Q-Chem.  Have a nice day.  *
