 Q-Chem 5.2 (devel), Q-Chem, Inc., Pleasanton, CA (2019)
 Q-Chem 5.2.2 for Intel X86 EM64T Linux

User input:
--------------------------------------------------------------
$rem
   JOBTYPE  sp
   EXCHANGE   omegaB97X-D
   BASIS   6-311+G(2df,2pd)
   max_scf_cycles   250
   geom_opt_max_cycles   1500
   basis2 6-31G*
   scf_algorithm rca_diis
   SYM_IGNORE  TRUE
   print_input   true
   geom_opt_dmax   80
   pop_mulliken false
   XC_GRID 000075000302
$end

$molecule
0 1
C       1.2697836089     0.0284122172     0.2330610850
C       0.0000000101     0.0268210962     -0.6273138553
H       1.3647221367     -0.8299231256     0.9065464354
H       1.2186747092     0.8536094941     0.9446462071
H       2.1402750876     -0.0873492999     -0.4110687922
C       -1.2697837288     0.0284125950     0.2330610293
H       -0.0000003368     -0.9124954983     -1.1795856095
H       0.0000000118     0.9561768419     -1.1984249700
H       -1.3647233153     -0.8299230451     0.9065459359
H       -2.1402749997     -0.0873502186     -0.4110687658
H       -1.2186732443     0.8536096091     0.9446463191
--------------------------------------------------------------

             Standard Nuclear Orientation (Angstroms)
    I     Atom           X                Y                Z
 ----------------------------------------------------------------
    1      C       1.2697836089     0.0284122172     0.2330610850
    2      C       0.0000000101     0.0268210962    -0.6273138553
    3      H       1.3647221367    -0.8299231256     0.9065464354
    4      H       1.2186747092     0.8536094941     0.9446462071
    5      H       2.1402750876    -0.0873492999    -0.4110687922
    6      C      -1.2697837288     0.0284125950     0.2330610293
    7      H      -0.0000003368    -0.9124954983    -1.1795856095
    8      H       0.0000000118     0.9561768419    -1.1984249700
    9      H      -1.3647233153    -0.8299230451     0.9065459359
   10      H      -2.1402749997    -0.0873502186    -0.4110687658
   11      H      -1.2186732443     0.8536096091     0.9446463191
 ----------------------------------------------------------------

    7    -119.0888370512      5.32E-06 Convergence criterion met
    5    -119.1323605358      9.46E-06 Convergence criterion met
 Total energy in the final basis set = -119.13236054

                    Orbital Energies (a.u.)
 --------------------------------------------------------------

 Alpha MOs
 -- Occupied --
-10.2761 -10.2648 -10.2648  -0.8812  -0.7766  -0.6767  -0.5558  -0.5187
 -0.4960  -0.4576  -0.4150  -0.4090  -0.4050

                    Cartesian Multipole Moments
 -----------------------------------------------------------------
    Charge (ESU x 10^10)
                -0.0000
    Dipole Moment (Debye)
         X       0.0000      Y      -0.1407      Z      -0.0012
       Tot       0.1407
    Quadrupole Moments (Debye-Ang)
        XX     -22.5173     XY       0.0000     YY     -21.4659
        XZ       0.0000     YZ       0.2228     ZZ     -21.7428

 Total job time:  44.06s(wall), 121.99s(cpu)
        *  Thank you very much for using Q-Chem.  Have a nice day.  *
