 Q-Chem 5.2 (devel), Q-Chem, Inc., Pleasanton, CA (2019)
 Q-Chem 5.2.2 for Intel X86 EM64T Linux

User input:
--------------------------------------------------------------
$rem
   JOBTYPE  sp
   EXCHANGE   omegaB97X-D
   BASIS   6-311+G(2df,2pd)
   max_scf_cycles   250
   geom_opt_max_cycles   1500
   basis2 6-31G*
   scf_algorithm rca_diis
   SYM_IGNORE  TRUE
   print_input   true
   geom_opt_dmax   80
   pop_mulliken false
   XC_GRID 000075000302
$end

$molecule
0 1
C       1.2671639580     -0.0022518519     0.2595209605
C       -0.0000000181     0.0140656883     -0.5870451289
H       1.3046687382     -0.8649362265     0.8847606304
H       1.3057261777     0.8959245188     0.9230925938
H       2.1648741334     0.0038443732     -0.3601659039
C       -1.2671640229     -0.0022516415     0.2595209526
H       -0.0000000067     -0.9136776066     -1.2859536525
H       -0.0000000818     0.8344503845     -1.2003727643
H       -1.3046688460     -0.8649363460     0.8847608609
H       -2.1648739074     0.0038451245     -0.3601657292
H       -1.3057261852     0.8959242492     0.9230921997
--------------------------------------------------------------

             Standard Nuclear Orientation (Angstroms)
    I     Atom           X                Y                Z
 ----------------------------------------------------------------
    1      C       1.2671639580    -0.0022518519     0.2595209605
    2      C      -0.0000000181     0.0140656883    -0.5870451289
    3      H       1.3046687382    -0.8649362265     0.8847606304
    4      H       1.3057261777     0.8959245188     0.9230925938
    5      H       2.1648741334     0.0038443732    -0.3601659039
    6      C      -1.2671640229    -0.0022516415     0.2595209526
    7      H      -0.0000000067    -0.9136776066    -1.2859536525
    8      H      -0.0000000818     0.8344503845    -1.2003727643
    9      H      -1.3046688460    -0.8649363460     0.8847608609
   10      H      -2.1648739074     0.0038451245    -0.3601657292
   11      H      -1.3057261852     0.8959242492     0.9230921997
 ----------------------------------------------------------------

    7    -119.0958083207      4.68E-06 Convergence criterion met
    6    -119.1390159431      3.92E-06 Convergence criterion met
 Total energy in the final basis set = -119.13901594

                    Orbital Energies (a.u.)
 --------------------------------------------------------------

 Alpha MOs
 -- Occupied --
-10.2738 -10.2652 -10.2652  -0.8819  -0.7775  -0.6798  -0.5455  -0.5239
 -0.4842  -0.4624  -0.4230  -0.4189  -0.4027

                    Cartesian Multipole Moments
 -----------------------------------------------------------------
    Charge (ESU x 10^10)
                 0.0000
    Dipole Moment (Debye)
         X      -0.0000      Y       0.0234      Z      -0.0751
       Tot       0.0787
    Quadrupole Moments (Debye-Ang)
        XX     -22.1555     XY      -0.0000     YY     -21.3679
        XZ      -0.0000     YZ      -0.1298     ZZ     -21.8613

 Total job time:  49.01s(wall), 136.96s(cpu)
        *  Thank you very much for using Q-Chem.  Have a nice day.  *
