 Q-Chem 5.2 (devel), Q-Chem, Inc., Pleasanton, CA (2019)
 Q-Chem 5.2.2 for Intel X86 EM64T Linux

User input:
--------------------------------------------------------------
$rem
   JOBTYPE  sp
   EXCHANGE   omegaB97X-D
   BASIS   6-311+G(2df,2pd)
   max_scf_cycles   250
   geom_opt_max_cycles   1500
   basis2 6-31G*
   scf_algorithm rca_diis
   SYM_IGNORE  TRUE
   print_input   true
   geom_opt_dmax   80
   pop_mulliken false
   XC_GRID 000075000302
$end

$molecule
0 1
C       1.3056279272     0.0009241824     0.2196430071
C       0.0118052562     0.0000130686     -0.5875005469
H       1.3487090440     -0.9445002134     0.9232689634
H       1.3478670989     0.9410150564     0.9196862019
H       2.0336328251     0.0011191185     -0.2960128725
C       -1.2275830307     -0.0008992167     0.2978805026
H       0.0002896309     -0.8738423635     -1.2432686955
H       -0.0002044459     0.8738539428     -1.2432327686
H       -1.2611953634     -0.8157621488     0.8842316147
H       -2.2969985053     -0.0011604382     -0.4214207528
H       -1.2619504976     0.8192396779     0.8877703655
--------------------------------------------------------------

             Standard Nuclear Orientation (Angstroms)
    I     Atom           X                Y                Z
 ----------------------------------------------------------------
    1      C       1.3056279272     0.0009241824     0.2196430071
    2      C       0.0118052562     0.0000130686    -0.5875005469
    3      H       1.3487090440    -0.9445002134     0.9232689634
    4      H       1.3478670989     0.9410150564     0.9196862019
    5      H       2.0336328251     0.0011191185    -0.2960128725
    6      C      -1.2275830307    -0.0008992167     0.2978805026
    7      H       0.0002896309    -0.8738423635    -1.2432686955
    8      H      -0.0002044459     0.8738539428    -1.2432327686
    9      H      -1.2611953634    -0.8157621488     0.8842316147
   10      H      -2.2969985053    -0.0011604382    -0.4214207528
   11      H      -1.2619504976     0.8192396779     0.8877703655
 ----------------------------------------------------------------

    7    -119.0309137709      6.04E-06 Convergence criterion met
    5    -119.0768512939      9.14E-06 Convergence criterion met
 Total energy in the final basis set = -119.07685129

                    Orbital Energies (a.u.)
 --------------------------------------------------------------

 Alpha MOs
 -- Occupied --
-10.2757 -10.2659 -10.2619  -0.8856  -0.7879  -0.6845  -0.5499  -0.5343
 -0.4782  -0.4671  -0.4277  -0.4063  -0.4052

                    Cartesian Multipole Moments
 -----------------------------------------------------------------
    Charge (ESU x 10^10)
                 0.0000
    Dipole Moment (Debye)
         X       0.2455      Y       0.0026      Z      -0.0638
       Tot       0.2537
    Quadrupole Moments (Debye-Ang)
        XX     -22.4446     XY       0.0127     YY     -21.3552
        XZ      -0.3807     YZ       0.0013     ZZ     -21.7670

 Total job time:  44.73s(wall), 123.77s(cpu)
        *  Thank you very much for using Q-Chem.  Have a nice day.  *
