 Q-Chem 5.2 (devel), Q-Chem, Inc., Pleasanton, CA (2019)
 Q-Chem 5.2.2 for Intel X86 EM64T Linux

User input:
--------------------------------------------------------------
$rem
   JOBTYPE  sp
   EXCHANGE   omegaB97X-D
   BASIS   6-311+G(2df,2pd)
   max_scf_cycles   250
   geom_opt_max_cycles   1500
   basis2 6-31G*
   scf_algorithm rca_diis
   SYM_IGNORE  TRUE
   print_input   true
   geom_opt_dmax   80
   pop_mulliken false
   XC_GRID 000075000302
$end

$molecule
0 1
C       1.4931126700     -0.0001986051     0.2640623599
C       -0.0000000803     0.0027425131     -0.1695550879
H       1.8475006078     -0.8853753567     0.7929150003
H       1.8524452321     0.8816791628     0.7958204085
H       1.9688098817     0.0057180346     -0.7213099363
C       -1.4931129384     -0.0001989752     0.2640618709
H       0.0000009217     -0.8405013139     -0.8695723322
H       -0.0000003964     0.8341125107     -0.8828030273
H       -1.8475009307     -0.8853752627     0.7929152365
H       -1.9688106686     0.0057190505     -0.7213099052
H       -1.8524443595     0.8816789079     0.7958204316
--------------------------------------------------------------

             Standard Nuclear Orientation (Angstroms)
    I     Atom           X                Y                Z
 ----------------------------------------------------------------
    1      C       1.4931126700    -0.0001986051     0.2640623599
    2      C      -0.0000000803     0.0027425131    -0.1695550879
    3      H       1.8475006078    -0.8853753567     0.7929150003
    4      H       1.8524452321     0.8816791628     0.7958204085
    5      H       1.9688098817     0.0057180346    -0.7213099363
    6      C      -1.4931129384    -0.0001989752     0.2640618709
    7      H       0.0000009217    -0.8405013139    -0.8695723322
    8      H      -0.0000003964     0.8341125107    -0.8828030273
    9      H      -1.8475009307    -0.8853752627     0.7929152365
   10      H      -1.9688106686     0.0057190505    -0.7213099052
   11      H      -1.8524443595     0.8816789079     0.7958204316
 ----------------------------------------------------------------

    7    -119.0628815357      4.24E-06 Convergence criterion met
    6    -119.1063328856      4.20E-06 Convergence criterion met
 Total energy in the final basis set = -119.10633289

                    Orbital Energies (a.u.)
 --------------------------------------------------------------

 Alpha MOs
 -- Occupied --
-10.2795 -10.2745 -10.2745  -0.8740  -0.7929  -0.6723  -0.5358  -0.5062
 -0.5018  -0.4758  -0.4293  -0.3969  -0.3879

                    Cartesian Multipole Moments
 -----------------------------------------------------------------
    Charge (ESU x 10^10)
                -0.0000
    Dipole Moment (Debye)
         X       0.0000      Y      -0.0038      Z      -0.2824
       Tot       0.2824
    Quadrupole Moments (Debye-Ang)
        XX     -21.7453     XY      -0.0000     YY     -21.5483
        XZ       0.0000     YZ      -0.0248     ZZ     -21.7995

 Total job time:  47.82s(wall), 133.27s(cpu)
        *  Thank you very much for using Q-Chem.  Have a nice day.  *
