 Q-Chem 5.2 (devel), Q-Chem, Inc., Pleasanton, CA (2019)
 Q-Chem 5.2.2 for Intel X86 EM64T Linux

User input:
--------------------------------------------------------------
$rem
   JOBTYPE  sp
   EXCHANGE   omegaB97X-D
   BASIS   6-311+G(2df,2pd)
   max_scf_cycles   250
   geom_opt_max_cycles   1500
   basis2 6-31G*
   scf_algorithm rca_diis
   SYM_IGNORE  TRUE
   print_input   true
   geom_opt_dmax   80
   pop_mulliken false
   XC_GRID 000075000302
$end

$molecule
0 1
C       1.2736045020     0.0275978306     0.2504634183
C       0.0035846359     0.0000596145     -0.5866281048
H       1.2556625096     -0.8822462717     0.8556334348
H       1.3382674982     0.8709456424     0.9398496325
H       2.1818359873     -0.0045202063     -0.3516151555
C       -1.2601183225     -0.0278169234     0.2697029971
H       0.0620013418     -0.8716158580     -1.2427729764
H       -0.0834034331     0.8705055316     -1.2412379220
H       -1.3551322593     -0.8755390970     0.9496466589
H       -2.1445029657     0.0050146514     -0.3679617003
H       -1.2717995548     0.8876157519     0.8659647364
--------------------------------------------------------------

             Standard Nuclear Orientation (Angstroms)
    I     Atom           X                Y                Z
 ----------------------------------------------------------------
    1      C       1.2736045020     0.0275978306     0.2504634183
    2      C       0.0035846359     0.0000596145    -0.5866281048
    3      H       1.2556625096    -0.8822462717     0.8556334348
    4      H       1.3382674982     0.8709456424     0.9398496325
    5      H       2.1818359873    -0.0045202063    -0.3516151555
    6      C      -1.2601183225    -0.0278169234     0.2697029971
    7      H       0.0620013418    -0.8716158580    -1.2427729764
    8      H      -0.0834034331     0.8705055316    -1.2412379220
    9      H      -1.3551322593    -0.8755390970     0.9496466589
   10      H      -2.1445029657     0.0050146514    -0.3679617003
   11      H      -1.2717995548     0.8876157519     0.8659647364
 ----------------------------------------------------------------

    7    -119.1009799421      4.54E-06 Convergence criterion met
    6    -119.1439656390      3.89E-06 Convergence criterion met
 Total energy in the final basis set = -119.14396564

                    Orbital Energies (a.u.)
 --------------------------------------------------------------

 Alpha MOs
 -- Occupied --
-10.2744 -10.2655 -10.2649  -0.8817  -0.7775  -0.6777  -0.5465  -0.5245
 -0.4823  -0.4641  -0.4186  -0.4168  -0.4071

                    Cartesian Multipole Moments
 -----------------------------------------------------------------
    Charge (ESU x 10^10)
                -0.0000
    Dipole Moment (Debye)
         X      -0.0128      Y      -0.0020      Z      -0.0834
       Tot       0.0844
    Quadrupole Moments (Debye-Ang)
        XX     -22.1554     XY      -0.0301     YY     -21.3839
        XZ      -0.0112     YZ       0.0015     ZZ     -21.8437

 Total job time:  47.12s(wall), 131.33s(cpu)
        *  Thank you very much for using Q-Chem.  Have a nice day.  *
