 Q-Chem 5.2 (devel), Q-Chem, Inc., Pleasanton, CA (2019)
 Q-Chem 5.2.2 for Intel X86 EM64T Linux

User input:
--------------------------------------------------------------
$rem
   JOBTYPE  sp
   EXCHANGE   omegaB97X-D
   BASIS   6-311+G(2df,2pd)
   max_scf_cycles   250
   geom_opt_max_cycles   1500
   basis2 6-31G*
   scf_algorithm rca_diis
   SYM_IGNORE  TRUE
   print_input   true
   geom_opt_dmax   80
   pop_mulliken false
   XC_GRID 000075000302
$end

$molecule
0 1
C       1.3023712402     -0.0000386327     0.2598494691
C       -0.0000000113     0.0005335599     -0.5390768918
H       1.3834199552     -0.8817967323     0.8983544511
H       1.3842515324     0.8813665291     0.8988120677
H       2.1576037930     0.0004306942     -0.4174377188
C       -1.3023712933     -0.0000387086     0.2598494119
H       0.0000000978     -0.8710985843     -1.1985682300
H       -0.0000000951     0.8706413516     -1.2004663556
H       -1.3834199788     -0.8817967233     0.8983544916
H       -2.1576038784     0.0004314338     -0.4174376872
H       -1.3842514224     0.8813664786     0.8988120109
--------------------------------------------------------------

             Standard Nuclear Orientation (Angstroms)
    I     Atom           X                Y                Z
 ----------------------------------------------------------------
    1      C       1.3023712402    -0.0000386327     0.2598494691
    2      C      -0.0000000113     0.0005335599    -0.5390768918
    3      H       1.3834199552    -0.8817967323     0.8983544511
    4      H       1.3842515324     0.8813665291     0.8988120677
    5      H       2.1576037930     0.0004306942    -0.4174377188
    6      C      -1.3023712933    -0.0000387086     0.2598494119
    7      H       0.0000000978    -0.8710985843    -1.1985682300
    8      H      -0.0000000951     0.8706413516    -1.2004663556
    9      H      -1.3834199788    -0.8817967233     0.8983544916
   10      H      -2.1576038784     0.0004314338    -0.4174376872
   11      H      -1.3842514224     0.8813664786     0.8988120109
 ----------------------------------------------------------------

    7    -119.1024027845      4.38E-06 Convergence criterion met
    6    -119.1452760152      4.01E-06 Convergence criterion met
 Total energy in the final basis set = -119.14527602

                    Orbital Energies (a.u.)
 --------------------------------------------------------------

 Alpha MOs
 -- Occupied --
-10.2745 -10.2659 -10.2659  -0.8785  -0.7800  -0.6763  -0.5437  -0.5210
 -0.4859  -0.4662  -0.4213  -0.4136  -0.4057

                    Cartesian Multipole Moments
 -----------------------------------------------------------------
    Charge (ESU x 10^10)
                 0.0000
    Dipole Moment (Debye)
         X       0.0000      Y      -0.0002      Z      -0.0975
       Tot       0.0975
    Quadrupole Moments (Debye-Ang)
        XX     -22.1103     XY      -0.0000     YY     -21.3806
        XZ       0.0000     YZ      -0.0031     ZZ     -21.8230

 Total job time:  49.74s(wall), 138.18s(cpu)
        *  Thank you very much for using Q-Chem.  Have a nice day.  *
