 Q-Chem 5.2 (devel), Q-Chem, Inc., Pleasanton, CA (2019)
 Q-Chem 5.2.2 for Intel X86 EM64T Linux

User input:
--------------------------------------------------------------
$rem
   JOBTYPE  sp
   EXCHANGE   omegaB97X-D
   BASIS   6-311+G(2df,2pd)
   max_scf_cycles   250
   geom_opt_max_cycles   1500
   basis2 6-31G*
   scf_algorithm rca_diis
   SYM_IGNORE  TRUE
   print_input   true
   geom_opt_dmax   80
   pop_mulliken false
   XC_GRID 000075000302
$end

$molecule
0 1
C       1.2617130493     -0.0114525159     0.2480134933
C       0.0000001681     -0.0132684503     -0.6247910569
H       1.2735543377     -0.9152596183     0.8570522874
H       1.3454224724     0.9035089656     0.8381867582
H       2.1783312824     0.0403553150     -0.3447857488
C       -1.2617127074     -0.0114536920     0.2480137209
H       0.0000008030     -0.9809566401     -1.1217076724
H       -0.0000009614     0.9599160566     -1.1093888854
H       -1.2735486449     -0.9152605695     0.8570524517
H       -2.1783314274     0.0403624349     -0.3447842272
H       -1.3454284324     0.9035093800     0.8381838981
--------------------------------------------------------------

             Standard Nuclear Orientation (Angstroms)
    I     Atom           X                Y                Z
 ----------------------------------------------------------------
    1      C       1.2617130493    -0.0114525159     0.2480134933
    2      C       0.0000001681    -0.0132684503    -0.6247910569
    3      H       1.2735543377    -0.9152596183     0.8570522874
    4      H       1.3454224724     0.9035089656     0.8381867582
    5      H       2.1783312824     0.0403553150    -0.3447857488
    6      C      -1.2617127074    -0.0114536920     0.2480137209
    7      H       0.0000008030    -0.9809566401    -1.1217076724
    8      H      -0.0000009614     0.9599160566    -1.1093888854
    9      H      -1.2735486449    -0.9152605695     0.8570524517
   10      H      -2.1783314274     0.0403624349    -0.3447842272
   11      H      -1.3454284324     0.9035093800     0.8381838981
 ----------------------------------------------------------------

    7    -119.0891483299      5.98E-06 Convergence criterion met
    5    -119.1326220330      9.09E-06 Convergence criterion met
 Total energy in the final basis set = -119.13262203

                    Orbital Energies (a.u.)
 --------------------------------------------------------------

 Alpha MOs
 -- Occupied --
-10.2761 -10.2641 -10.2641  -0.8828  -0.7762  -0.6720  -0.5687  -0.5142
 -0.4760  -0.4696  -0.4251  -0.4143  -0.3944

                    Cartesian Multipole Moments
 -----------------------------------------------------------------
    Charge (ESU x 10^10)
                -0.0000
    Dipole Moment (Debye)
         X      -0.0000      Y       0.0604      Z      -0.0565
       Tot       0.0827
    Quadrupole Moments (Debye-Ang)
        XX     -22.2663     XY      -0.0000     YY     -20.6023
        XZ      -0.0000     YZ      -0.1007     ZZ     -22.8354

 Total job time:  44.37s(wall), 122.61s(cpu)
        *  Thank you very much for using Q-Chem.  Have a nice day.  *
