 Q-Chem 5.2 (devel), Q-Chem, Inc., Pleasanton, CA (2019)
 Q-Chem 5.2.2 for Intel X86 EM64T Linux

User input:
--------------------------------------------------------------
$rem
   JOBTYPE  sp
   EXCHANGE   omegaB97X-D
   BASIS   6-311+G(2df,2pd)
   max_scf_cycles   250
   geom_opt_max_cycles   1500
   basis2 6-31G*
   scf_algorithm rca_diis
   SYM_IGNORE  TRUE
   print_input   true
   geom_opt_dmax   80
   pop_mulliken false
   XC_GRID 000075000302
$end

$molecule
0 1
C       1.2593609052     -0.0847097932     0.2321237512
C       0.0000001579     0.1152414479     -0.5664332206
H       1.3633440219     -0.9265592476     0.9134743930
H       1.1201460642     0.8385372689     0.8058028880
H       2.1989849094     0.0897116774     -0.2919755891
C       -1.2593606309     -0.0847098429     0.2321237144
H       0.0000008638     -0.8467607723     -1.0849093111
H       -0.0000011178     0.8975579800     -1.3264634785
H       -1.3633436407     -0.9265591640     0.9134745099
H       -2.1989845415     0.0897133957     -0.2919752387
H       -1.1201470521     0.8385377159     0.8058026004
--------------------------------------------------------------

             Standard Nuclear Orientation (Angstroms)
    I     Atom           X                Y                Z
 ----------------------------------------------------------------
    1      C       1.2593609052    -0.0847097932     0.2321237512
    2      C       0.0000001579     0.1152414479    -0.5664332206
    3      H       1.3633440219    -0.9265592476     0.9134743930
    4      H       1.1201460642     0.8385372689     0.8058028880
    5      H       2.1989849094     0.0897116774    -0.2919755891
    6      C      -1.2593606309    -0.0847098429     0.2321237144
    7      H       0.0000008638    -0.8467607723    -1.0849093111
    8      H      -0.0000011178     0.8975579800    -1.3264634785
    9      H      -1.3633436407    -0.9265591640     0.9134745099
   10      H      -2.1989845415     0.0897133957    -0.2919752387
   11      H      -1.1201470521     0.8385377159     0.8058026004
 ----------------------------------------------------------------

    7    -119.0578260939      6.37E-06 Convergence criterion met
    6    -119.1026302068      4.50E-06 Convergence criterion met
 Total energy in the final basis set = -119.10263021

                    Orbital Energies (a.u.)
 --------------------------------------------------------------

 Alpha MOs
 -- Occupied --
-10.2736 -10.2660 -10.2660  -0.8951  -0.7818  -0.6760  -0.5581  -0.5352
 -0.4960  -0.4487  -0.4422  -0.4274  -0.3539

                    Cartesian Multipole Moments
 -----------------------------------------------------------------
    Charge (ESU x 10^10)
                -0.0000
    Dipole Moment (Debye)
         X      -0.0000      Y       0.0010      Z      -0.1183
       Tot       0.1183
    Quadrupole Moments (Debye-Ang)
        XX     -21.8582     XY      -0.0000     YY     -21.2513
        XZ      -0.0000     YZ      -1.2825     ZZ     -22.5430

 Total job time:  49.45s(wall), 138.16s(cpu)
        *  Thank you very much for using Q-Chem.  Have a nice day.  *
