 Q-Chem 5.2 (devel), Q-Chem, Inc., Pleasanton, CA (2019)
 Q-Chem 5.2.2 for Intel X86 EM64T Linux

User input:
--------------------------------------------------------------
$rem
   JOBTYPE  sp
   EXCHANGE   omegaB97X-D
   BASIS   6-311+G(2df,2pd)
   max_scf_cycles   250
   geom_opt_max_cycles   1500
   basis2 6-31G*
   scf_algorithm rca_diis
   SYM_IGNORE  TRUE
   print_input   true
   geom_opt_dmax   80
   pop_mulliken false
   XC_GRID 000075000302
$end

$molecule
0 1
C       1.2636318483     -0.0649651450     0.2396335817
C       0.0000001182     0.0864820898     -0.5719419875
H       1.3533190018     -0.9156637265     0.9135255742
H       1.1669516333     0.8498512769     0.8333169215
H       2.1943296806     0.0691914938     -0.3118020330
C       -1.2636316366     -0.0649651676     0.2396335695
H       0.0000006680     -0.8545355707     -1.1274816038
H       -0.0000008582     0.8912244846     -1.3088796019
H       -1.3533187093     -0.9156636206     0.9135257082
H       -2.1943294257     0.0691929268     -0.3118017877
H       -1.1669523812     0.8498516244     0.8333166776
--------------------------------------------------------------

             Standard Nuclear Orientation (Angstroms)
    I     Atom           X                Y                Z
 ----------------------------------------------------------------
    1      C       1.2636318483    -0.0649651450     0.2396335817
    2      C       0.0000001182     0.0864820898    -0.5719419875
    3      H       1.3533190018    -0.9156637265     0.9135255742
    4      H       1.1669516333     0.8498512769     0.8333169215
    5      H       2.1943296806     0.0691914938    -0.3118020330
    6      C      -1.2636316366    -0.0649651676     0.2396335695
    7      H       0.0000006680    -0.8545355707    -1.1274816038
    8      H      -0.0000008582     0.8912244846    -1.3088796019
    9      H      -1.3533187093    -0.9156636206     0.9135257082
   10      H      -2.1943294257     0.0691929268    -0.3118017877
   11      H      -1.1669523812     0.8498516244     0.8333166776
 ----------------------------------------------------------------

    7    -119.0775657957      5.46E-06 Convergence criterion met
    6    -119.1215775702      4.26E-06 Convergence criterion met
 Total energy in the final basis set = -119.12157757

                    Orbital Energies (a.u.)
 --------------------------------------------------------------

 Alpha MOs
 -- Occupied --
-10.2730 -10.2656 -10.2656  -0.8900  -0.7802  -0.6763  -0.5537  -0.5317
 -0.4903  -0.4531  -0.4359  -0.4278  -0.3699

                    Cartesian Multipole Moments
 -----------------------------------------------------------------
    Charge (ESU x 10^10)
                 0.0000
    Dipole Moment (Debye)
         X      -0.0000      Y       0.0036      Z      -0.0999
       Tot       0.0999
    Quadrupole Moments (Debye-Ang)
        XX     -21.9007     XY      -0.0000     YY     -21.2900
        XZ      -0.0000     YZ      -0.9693     ZZ     -22.3280

 Total job time:  49.69s(wall), 139.04s(cpu)
        *  Thank you very much for using Q-Chem.  Have a nice day.  *
