 Q-Chem 5.2 (devel), Q-Chem, Inc., Pleasanton, CA (2019)
 Q-Chem 5.2.2 for Intel X86 EM64T Linux

User input:
--------------------------------------------------------------
$rem
   JOBTYPE  sp
   EXCHANGE   omegaB97X-D
   BASIS   6-311+G(2df,2pd)
   max_scf_cycles   250
   geom_opt_max_cycles   1500
   basis2 6-31G*
   scf_algorithm rca_diis
   SYM_IGNORE  TRUE
   print_input   true
   geom_opt_dmax   80
   pop_mulliken false
   XC_GRID 000075000302
$end

$molecule
0 1
C       1.4148886819     0.0067942431     0.2594373697
C       -0.0000001247     0.0033232138     -0.7912549024
H       1.2872574411     -0.8626123818     0.9109798287
H       1.2986115073     0.8631481070     0.9287755121
H       2.4496187595     -0.0056124607     -0.0899705567
C       -1.4148894737     0.0067939631     0.2594364902
H       0.0000012643     -0.8798102209     -1.4339583338
H       -0.0000000581     0.8730515863     -1.4521854116
H       -1.2872572380     -0.8626116299     0.9109801356
H       -2.4496201849     -0.0056116055     -0.0899694532
H       -1.2986106353     0.8631478513     0.9287743402
--------------------------------------------------------------

             Standard Nuclear Orientation (Angstroms)
    I     Atom           X                Y                Z
 ----------------------------------------------------------------
    1      C       1.4148886819     0.0067942431     0.2594373697
    2      C      -0.0000001247     0.0033232138    -0.7912549024
    3      H       1.2872574411    -0.8626123818     0.9109798287
    4      H       1.2986115073     0.8631481070     0.9287755121
    5      H       2.4496187595    -0.0056124607    -0.0899705567
    6      C      -1.4148894737     0.0067939631     0.2594364902
    7      H       0.0000012643    -0.8798102209    -1.4339583338
    8      H      -0.0000000581     0.8730515863    -1.4521854116
    9      H      -1.2872572380    -0.8626116299     0.9109801356
   10      H      -2.4496201849    -0.0056116055    -0.0899694532
   11      H      -1.2986106353     0.8631478513     0.9287743402
 ----------------------------------------------------------------

    7    -119.0523093936      4.00E-06 Convergence criterion met
    5    -119.0949940558      7.86E-06 Convergence criterion met
 Total energy in the final basis set = -119.09499406

                    Orbital Energies (a.u.)
 --------------------------------------------------------------

 Alpha MOs
 -- Occupied --
-10.3116 -10.2839 -10.2839  -0.8321  -0.7675  -0.6991  -0.5182  -0.5089
 -0.4637  -0.4583  -0.4290  -0.4075  -0.4064

                    Cartesian Multipole Moments
 -----------------------------------------------------------------
    Charge (ESU x 10^10)
                -0.0000
    Dipole Moment (Debye)
         X       0.0000      Y      -0.0205      Z       0.0875
       Tot       0.0899
    Quadrupole Moments (Debye-Ang)
        XX     -21.1450     XY      -0.0000     YY     -21.8637
        XZ      -0.0000     YZ       0.0401     ZZ     -21.8896

 Total job time:  43.28s(wall), 120.22s(cpu)
        *  Thank you very much for using Q-Chem.  Have a nice day.  *
