 Q-Chem 5.2 (devel), Q-Chem, Inc., Pleasanton, CA (2019)
 Q-Chem 5.2.2 for Intel X86 EM64T Linux

User input:
--------------------------------------------------------------
$rem
   JOBTYPE  sp
   EXCHANGE   omegaB97X-D
   BASIS   6-311+G(2df,2pd)
   max_scf_cycles   250
   geom_opt_max_cycles   1500
   basis2 6-31G*
   scf_algorithm rca_diis
   SYM_IGNORE  TRUE
   print_input   true
   geom_opt_dmax   80
   pop_mulliken false
   XC_GRID 000075000302
$end

$molecule
0 1
C       1.2702381713     0.0433623964     0.2192196736
C       0.0000000152     0.0407561018     -0.6491675615
H       1.3934904699     -0.8020157599     0.9070191361
H       1.1744657813     0.8358105087     0.9619448337
H       2.1245533167     -0.1314231640     -0.4320290507
C       -1.2702383662     0.0433629485     0.2192195687
H       -0.0000005314     -0.9272208473     -1.1462875250
H       0.0000000795     0.9949984118     -1.1758084672
H       -1.3934922866     -0.8020156300     0.9070183573
H       -2.1245531033     -0.1314248157     -0.4320289071
H       -1.1744636071     0.8358105156     0.9619449610
--------------------------------------------------------------

             Standard Nuclear Orientation (Angstroms)
    I     Atom           X                Y                Z
 ----------------------------------------------------------------
    1      C       1.2702381713     0.0433623964     0.2192196736
    2      C       0.0000000152     0.0407561018    -0.6491675615
    3      H       1.3934904699    -0.8020157599     0.9070191361
    4      H       1.1744657813     0.8358105087     0.9619448337
    5      H       2.1245533167    -0.1314231640    -0.4320290507
    6      C      -1.2702383662     0.0433629485     0.2192195687
    7      H      -0.0000005314    -0.9272208473    -1.1462875250
    8      H       0.0000000795     0.9949984118    -1.1758084672
    9      H      -1.3934922866    -0.8020156300     0.9070183573
   10      H      -2.1245531033    -0.1314248157    -0.4320289071
   11      H      -1.1744636071     0.8358105156     0.9619449610
 ----------------------------------------------------------------

    7    -119.0710237321      6.42E-06 Convergence criterion met
    5    -119.1153856102      9.49E-06 Convergence criterion met
 Total energy in the final basis set = -119.11538561

                    Orbital Energies (a.u.)
 --------------------------------------------------------------

 Alpha MOs
 -- Occupied --
-10.2771 -10.2649 -10.2649  -0.8820  -0.7772  -0.6773  -0.5628  -0.5177
 -0.5029  -0.4576  -0.4124  -0.4057  -0.3938

                    Cartesian Multipole Moments
 -----------------------------------------------------------------
    Charge (ESU x 10^10)
                -0.0000
    Dipole Moment (Debye)
         X       0.0000      Y      -0.2221      Z       0.0472
       Tot       0.2270
    Quadrupole Moments (Debye-Ang)
        XX     -22.7133     XY       0.0000     YY     -21.5464
        XZ       0.0000     YZ       0.3176     ZZ     -21.7299

 Total job time:  44.75s(wall), 124.06s(cpu)
        *  Thank you very much for using Q-Chem.  Have a nice day.  *
