 Q-Chem 5.2 (devel), Q-Chem, Inc., Pleasanton, CA (2019)
 Q-Chem 5.2.2 for Intel X86 EM64T Linux

User input:
--------------------------------------------------------------
$rem
   JOBTYPE  sp
   EXCHANGE   omegaB97X-D
   BASIS   6-311+G(2df,2pd)
   max_scf_cycles   250
   geom_opt_max_cycles   1500
   basis2 6-31G*
   scf_algorithm rca_diis
   SYM_IGNORE  TRUE
   print_input   true
   geom_opt_dmax   80
   pop_mulliken false
   XC_GRID 000075000302
$end

$molecule
0 1
C       1.3592771633     -0.0013631147     0.3210224165
C       -0.1332760677     0.0000208746     -0.5814989218
H       1.3963987050     -0.8707462946     0.9850103928
H       1.3904259538     0.8711209634     0.9813892675
H       2.2842957242     -0.0012642633     -0.2566141786
C       -1.1861415776     0.0012653426     0.1876533899
H       -0.3012820379     -0.8673894536     -1.2242473504
H       -0.2975282621     0.8677758803     -1.2247524032
H       -1.2275068902     -0.8896560618     0.8128158448
H       -2.0511767211     0.0009977805     -0.4761512390
H       -1.2334860505     0.8892390127     0.8164178003
--------------------------------------------------------------

             Standard Nuclear Orientation (Angstroms)
    I     Atom           X                Y                Z
 ----------------------------------------------------------------
    1      C       1.3592771633    -0.0013631147     0.3210224165
    2      C      -0.1332760677     0.0000208746    -0.5814989218
    3      H       1.3963987050    -0.8707462946     0.9850103928
    4      H       1.3904259538     0.8711209634     0.9813892675
    5      H       2.2842957242    -0.0012642633    -0.2566141786
    6      C      -1.1861415776     0.0012653426     0.1876533899
    7      H      -0.3012820379    -0.8673894536    -1.2242473504
    8      H      -0.2975282621     0.8677758803    -1.2247524032
    9      H      -1.2275068902    -0.8896560618     0.8128158448
   10      H      -2.0511767211     0.0009977805    -0.4761512390
   11      H      -1.2334860505     0.8892390127     0.8164178003
 ----------------------------------------------------------------

    7    -119.0338651378      6.72E-06 Convergence criterion met
    6    -119.0797345095      5.17E-06 Convergence criterion met
 Total energy in the final basis set = -119.07973451

                    Orbital Energies (a.u.)
 --------------------------------------------------------------

 Alpha MOs
 -- Occupied --
-10.2793 -10.2718 -10.2484  -0.9154  -0.7743  -0.6679  -0.5643  -0.5396
 -0.4799  -0.4643  -0.4478  -0.3940  -0.3821

                    Cartesian Multipole Moments
 -----------------------------------------------------------------
    Charge (ESU x 10^10)
                 0.0000
    Dipole Moment (Debye)
         X      -0.1727      Y       0.0004      Z      -0.0786
       Tot       0.1898
    Quadrupole Moments (Debye-Ang)
        XX     -21.9427     XY      -0.0116     YY     -21.3637
        XZ       1.0340     YZ       0.0007     ZZ     -21.9353

 Total job time:  49.07s(wall), 137.13s(cpu)
        *  Thank you very much for using Q-Chem.  Have a nice day.  *
