 Q-Chem 5.2 (devel), Q-Chem, Inc., Pleasanton, CA (2019)
 Q-Chem 5.2.2 for Intel X86 EM64T Linux

User input:
--------------------------------------------------------------
$rem
   JOBTYPE  sp
   EXCHANGE   omegaB97X-D
   BASIS   6-311+G(2df,2pd)
   max_scf_cycles   250
   geom_opt_max_cycles   1500
   basis2 6-31G*
   scf_algorithm rca_diis
   SYM_IGNORE  TRUE
   print_input   true
   geom_opt_dmax   80
   pop_mulliken false
   XC_GRID 000075000302
$end

$molecule
0 1
C       1.2295270917     -0.0513346275     0.3738459675
C       0.0000001002     0.0443188781     -0.6603433366
H       1.5147713758     -0.9107576691     0.9744581564
H       1.4393700609     0.8741394489     0.9126123121
H       1.9440959098     0.0552400682     -0.4519775412
C       -1.2295272434     -0.0513346266     0.3738461224
H       -0.0000004868     -0.8699129974     -1.2638322152
H       0.0000002285     0.8910199469     -1.3526575363
H       -1.5147712674     -0.9107577599     0.9744582285
H       -1.9440954557     0.0552406932     -0.4519777439
H       -1.4393703742     0.8741393112     0.9126126053
--------------------------------------------------------------

             Standard Nuclear Orientation (Angstroms)
    I     Atom           X                Y                Z
 ----------------------------------------------------------------
    1      C       1.2295270917    -0.0513346275     0.3738459675
    2      C       0.0000001002     0.0443188781    -0.6603433366
    3      H       1.5147713758    -0.9107576691     0.9744581564
    4      H       1.4393700609     0.8741394489     0.9126123121
    5      H       1.9440959098     0.0552400682    -0.4519775412
    6      C      -1.2295272434    -0.0513346266     0.3738461224
    7      H      -0.0000004868    -0.8699129974    -1.2638322152
    8      H       0.0000002285     0.8910199469    -1.3526575363
    9      H      -1.5147712674    -0.9107577599     0.9744582285
   10      H      -1.9440954557     0.0552406932    -0.4519777439
   11      H      -1.4393703742     0.8741393112     0.9126126053
 ----------------------------------------------------------------

    7    -119.0413809937      4.89E-06 Convergence criterion met
    6    -119.0856020529      4.68E-06 Convergence criterion met
 Total energy in the final basis set = -119.08560205

                    Orbital Energies (a.u.)
 --------------------------------------------------------------

 Alpha MOs
 -- Occupied --
-10.2968 -10.2652 -10.2652  -0.8671  -0.7710  -0.6870  -0.5372  -0.4985
 -0.4934  -0.4621  -0.4560  -0.4184  -0.3400

                    Cartesian Multipole Moments
 -----------------------------------------------------------------
    Charge (ESU x 10^10)
                 0.0000
    Dipole Moment (Debye)
         X       0.0000      Y       0.0410      Z      -0.3370
       Tot       0.3395
    Quadrupole Moments (Debye-Ang)
        XX     -23.6679     XY      -0.0000     YY     -21.1003
        XZ       0.0000     YZ      -0.6540     ZZ     -20.9401

 Total job time:  49.55s(wall), 138.56s(cpu)
        *  Thank you very much for using Q-Chem.  Have a nice day.  *
