 Q-Chem 5.2 (devel), Q-Chem, Inc., Pleasanton, CA (2019)
 Q-Chem 5.2.2 for Intel X86 EM64T Linux

User input:
--------------------------------------------------------------
$rem
   JOBTYPE  sp
   EXCHANGE   omegaB97X-D
   BASIS   6-311+G(2df,2pd)
   max_scf_cycles   250
   geom_opt_max_cycles   1500
   basis2 6-31G*
   scf_algorithm rca_diis
   SYM_IGNORE  TRUE
   print_input   true
   geom_opt_dmax   80
   pop_mulliken false
   XC_GRID 000075000302
$end

$molecule
0 1
C       1.3630705312     -0.0044270680     0.3697216423
C       0.2423137854     0.0006502094     -0.5545463536
H       1.3102787395     -0.9453829643     0.9069245593
H       1.3300248103     0.9401150701     0.9030803803
H       2.1137480520     0.0126610498     -0.4156781223
C       -1.1939531008     0.0055558135     0.1399582719
H       -0.1464122741     -0.7963485028     -1.1928595699
H       -0.1675225190     0.7888701616     -1.1905513265
H       -1.3540178169     -0.8044953784     0.8651310068
H       -2.1646834141     -0.0071914697     -0.3651475466
H       -1.3328468541     0.8099937448     0.8750120773
--------------------------------------------------------------

             Standard Nuclear Orientation (Angstroms)
    I     Atom           X                Y                Z
 ----------------------------------------------------------------
    1      C       1.3630705312    -0.0044270680     0.3697216423
    2      C       0.2423137854     0.0006502094    -0.5545463536
    3      H       1.3102787395    -0.9453829643     0.9069245593
    4      H       1.3300248103     0.9401150701     0.9030803803
    5      H       2.1137480520     0.0126610498    -0.4156781223
    6      C      -1.1939531008     0.0055558135     0.1399582719
    7      H      -0.1464122741    -0.7963485028    -1.1928595699
    8      H      -0.1675225190     0.7888701616    -1.1905513265
    9      H      -1.3540178169    -0.8044953784     0.8651310068
   10      H      -2.1646834141    -0.0071914697    -0.3651475466
   11      H      -1.3328468541     0.8099937448     0.8750120773
 ----------------------------------------------------------------

    7    -119.0276275913      7.15E-06 Convergence criterion met
    5    -119.0736259372      9.32E-06 Convergence criterion met
 Total energy in the final basis set = -119.07362594

                    Orbital Energies (a.u.)
 --------------------------------------------------------------

 Alpha MOs
 -- Occupied --
-10.2769 -10.2752 -10.2624  -0.8951  -0.7901  -0.6865  -0.5515  -0.5281
 -0.5032  -0.4656  -0.4321  -0.3831  -0.3758

                    Cartesian Multipole Moments
 -----------------------------------------------------------------
    Charge (ESU x 10^10)
                -0.0000
    Dipole Moment (Debye)
         X       0.0174      Y      -0.0057      Z      -0.0250
       Tot       0.0310
    Quadrupole Moments (Debye-Ang)
        XX     -22.1462     XY       0.0701     YY     -21.7684
        XZ       0.4252     YZ       0.0085     ZZ     -22.1177

 Total job time:  44.96s(wall), 124.99s(cpu)
        *  Thank you very much for using Q-Chem.  Have a nice day.  *
