 Q-Chem 5.2 (devel), Q-Chem, Inc., Pleasanton, CA (2019)
 Q-Chem 5.2.2 for Intel X86 EM64T Linux

User input:
--------------------------------------------------------------
$rem
   JOBTYPE  sp
   EXCHANGE   omegaB97X-D
   BASIS   6-311+G(2df,2pd)
   max_scf_cycles   250
   geom_opt_max_cycles   1500
   basis2 6-31G*
   scf_algorithm rca_diis
   SYM_IGNORE  TRUE
   print_input   true
   geom_opt_dmax   80
   pop_mulliken false
   XC_GRID 000075000302
$end

$molecule
0 1
C       1.3127017948     -0.0003868916     0.3687022122
C       0.0000009976     -0.0012986955     -0.5159151285
H       1.0778559571     -0.9400204432     0.8610351013
H       1.0819319132     0.9403445606     0.8610636185
H       1.9868627815     0.0013302927     -0.4813887408
C       -1.3126997873     -0.0003868264     0.3687017194
H       0.0000000335     -0.8709332412     -1.1818658992
H       0.0000009551     0.8696983184     -1.1799991751
H       -1.0778582413     -0.9400214008     0.8610347876
H       -1.9868644352     0.0013297263     -0.4813866307
H       -1.0819320295     0.9403452668     0.8610631541
--------------------------------------------------------------

             Standard Nuclear Orientation (Angstroms)
    I     Atom           X                Y                Z
 ----------------------------------------------------------------
    1      C       1.3127017948    -0.0003868916     0.3687022122
    2      C       0.0000009976    -0.0012986955    -0.5159151285
    3      H       1.0778559571    -0.9400204432     0.8610351013
    4      H       1.0819319132     0.9403445606     0.8610636185
    5      H       1.9868627815     0.0013302927    -0.4813887408
    6      C      -1.3126997873    -0.0003868264     0.3687017194
    7      H       0.0000000335    -0.8709332412    -1.1818658992
    8      H       0.0000009551     0.8696983184    -1.1799991751
    9      H      -1.0778582413    -0.9400214008     0.8610347876
   10      H      -1.9868644352     0.0013297263    -0.4813866307
   11      H      -1.0819320295     0.9403452668     0.8610631541
 ----------------------------------------------------------------

    7    -119.0394245258      7.30E-06 Convergence criterion met
    6    -119.0849432853      4.06E-06 Convergence criterion met
 Total energy in the final basis set = -119.08494329

                    Orbital Energies (a.u.)
 --------------------------------------------------------------

 Alpha MOs
 -- Occupied --
-10.2760 -10.2703 -10.2703  -0.8887  -0.7801  -0.6617  -0.5677  -0.5310
 -0.4902  -0.4844  -0.4149  -0.3990  -0.3783

                    Cartesian Multipole Moments
 -----------------------------------------------------------------
    Charge (ESU x 10^10)
                 0.0000
    Dipole Moment (Debye)
         X      -0.0000      Y       0.0038      Z      -0.5229
       Tot       0.5229
    Quadrupole Moments (Debye-Ang)
        XX     -24.7871     XY       0.0000     YY     -20.8263
        XZ      -0.0000     YZ       0.0037     ZZ     -22.4378

 Total job time:  50.25s(wall), 139.82s(cpu)
        *  Thank you very much for using Q-Chem.  Have a nice day.  *
