 Q-Chem 5.2 (devel), Q-Chem, Inc., Pleasanton, CA (2019)
 Q-Chem 5.2.2 for Intel X86 EM64T Linux

User input:
--------------------------------------------------------------
$rem
   JOBTYPE  sp
   EXCHANGE   omegaB97X-D
   BASIS   6-311+G(2df,2pd)
   max_scf_cycles   250
   geom_opt_max_cycles   1500
   basis2 6-31G*
   scf_algorithm rca_diis
   SYM_IGNORE  TRUE
   print_input   true
   geom_opt_dmax   80
   pop_mulliken false
   XC_GRID 000075000302
$end

$molecule
0 1
C       1.2622901477     -0.0259856333     0.2840067715
C       -0.0000000136     -0.0252189423     -0.5524485033
H       1.2426437942     -0.9244027276     0.8984149607
H       1.3894001952     0.8967788900     0.8556581653
H       2.1800961749     0.0854851037     -0.2968508113
C       -1.2622900773     -0.0259858495     0.2840067647
H       0.0000003916     -0.8243920998     -1.3018037018
H       -0.0000001626     0.7858585243     -1.2871613946
H       -1.2426426458     -0.9244024836     0.8984154488
H       -2.1800960656     0.0854872251     -0.2968505754
H       -1.3894017994     0.8967786592     0.8556578944
--------------------------------------------------------------

             Standard Nuclear Orientation (Angstroms)
    I     Atom           X                Y                Z
 ----------------------------------------------------------------
    1      C       1.2622901477    -0.0259856333     0.2840067715
    2      C      -0.0000000136    -0.0252189423    -0.5524485033
    3      H       1.2426437942    -0.9244027276     0.8984149607
    4      H       1.3894001952     0.8967788900     0.8556581653
    5      H       2.1800961749     0.0854851037    -0.2968508113
    6      C      -1.2622900773    -0.0259858495     0.2840067647
    7      H       0.0000003916    -0.8243920998    -1.3018037018
    8      H      -0.0000001626     0.7858585243    -1.2871613946
    9      H      -1.2426426458    -0.9244024836     0.8984154488
   10      H      -2.1800960656     0.0854872251    -0.2968505754
   11      H      -1.3894017994     0.8967786592     0.8556578944
 ----------------------------------------------------------------

    7    -119.0883070634      5.55E-06 Convergence criterion met
    6    -119.1321375797      3.77E-06 Convergence criterion met
 Total energy in the final basis set = -119.13213758

                    Orbital Energies (a.u.)
 --------------------------------------------------------------

 Alpha MOs
 -- Occupied --
-10.2728 -10.2658 -10.2658  -0.8831  -0.7798  -0.6824  -0.5546  -0.5202
 -0.4830  -0.4689  -0.4171  -0.4155  -0.3957

                    Cartesian Multipole Moments
 -----------------------------------------------------------------
    Charge (ESU x 10^10)
                -0.0000
    Dipole Moment (Debye)
         X      -0.0000      Y       0.1358      Z      -0.1665
       Tot       0.2148
    Quadrupole Moments (Debye-Ang)
        XX     -21.8334     XY      -0.0000     YY     -21.3402
        XZ      -0.0000     YZ      -0.2509     ZZ     -22.0279

 Total job time:  48.44s(wall), 135.31s(cpu)
        *  Thank you very much for using Q-Chem.  Have a nice day.  *
