 Q-Chem 5.3 (devel), Q-Chem, Inc., Pleasanton, CA (2020)
 Q-Chem 5.3.0 for Intel X86 EM64T Linux

User input:
--------------------------------------------------------------
$rem
   JOBTYPE  sp
   EXCHANGE   omegaB97X-D
   BASIS   6-311+G(2df,2pd)
   UNRESTRICTED   True
   max_scf_cycles   250
   geom_opt_max_cycles   1500
   basis2 6-31G*
   scf_algorithm rca_diis
   SYM_IGNORE  TRUE
   print_input   true
   geom_opt_dmax   80
   pop_mulliken false
   XC_GRID 000075000302
$end

$molecule
0 2
N       0.0002589028     -0.0832303025     -0.0000000000
O       0.0002807368     -1.3178004303     0.0000000000
O       -1.1207251910     0.6989223126     0.0000000000
O       1.1201858333     0.6981803423     0.0000000000
$end
--------------------------------------------------------------

             Standard Nuclear Orientation (Angstroms)
    I     Atom           X                Y                Z
 ----------------------------------------------------------------
    1      N       0.0002589028    -0.0832303025     0.0000000000
    2      O       0.0002807368    -1.3178004303     0.0000000000
    3      O      -1.1207251910     0.6989223126     0.0000000000
    4      O       1.1201858333     0.6981803423     0.0000000000
 ----------------------------------------------------------------

   11    -280.0886438531      2.40E-05 Convergence criterion met
   10    -280.1938712806      8.22E-06 Convergence criterion met
 Total energy in the final basis set = -280.19387128

                    Orbital Energies (a.u.)
 --------------------------------------------------------------

 Alpha MOs
 -- Occupied --
-19.4021 -19.4015 -19.3816 -14.7854  -1.3956  -1.2233  -1.1814  -0.8123
 -0.6970  -0.6915  -0.6873  -0.5416  -0.5094  -0.4833  -0.4812  -0.4692

 Beta MOs
 -- Occupied --
-19.3886 -19.3882 -19.3813 -14.7864  -1.3881  -1.2053  -1.1447  -0.7950
 -0.6861  -0.6806  -0.6750  -0.4739  -0.4715  -0.4616  -0.4443

                    Cartesian Multipole Moments
 -----------------------------------------------------------------
    Charge (ESU x 10^10)
                -0.0000
    Dipole Moment (Debye)
         X      -0.0071      Y      -0.1508      Z       0.0000
       Tot       0.1510
    Quadrupole Moments (Debye-Ang)
        XX     -22.2246     XY      -0.0037     YY     -23.0509
        XZ       0.0000     YZ       0.0000     ZZ     -20.5767

 Total job time:  12.66s(wall), 61.67s(cpu)
        *  Thank you very much for using Q-Chem.  Have a nice day.  *
