 Q-Chem 5.3 (devel), Q-Chem, Inc., Pleasanton, CA (2020)
 Q-Chem 5.3.0 for Intel X86 EM64T Linux

User input:
--------------------------------------------------------------
$rem
   JOBTYPE  sp
   EXCHANGE   omegaB97X-D
   BASIS   6-311+G(2df,2pd)
   UNRESTRICTED   True
   max_scf_cycles   250
   geom_opt_max_cycles   1500
   basis2 6-31G*
   scf_algorithm rca_diis
   SYM_IGNORE  TRUE
   print_input   true
   geom_opt_dmax   80
   pop_mulliken false
   XC_GRID 000075000302
$end

$molecule
0 2
N       -0.0001949215     -0.1362856693     -0.0000000000
O       0.0001947202     -1.1698012307     0.0000000000
O       -1.0378839272     0.6512268927     0.0000000000
O       1.0378844103     0.6509319294     0.0000000000
$end
--------------------------------------------------------------

             Standard Nuclear Orientation (Angstroms)
    I     Atom           X                Y                Z
 ----------------------------------------------------------------
    1      N      -0.0001949215    -0.1362856693     0.0000000000
    2      O       0.0001947202    -1.1698012307     0.0000000000
    3      O      -1.0378839272     0.6512268927     0.0000000000
    4      O       1.0378844103     0.6509319294     0.0000000000
 ----------------------------------------------------------------

    7    -280.0576555973      8.03E-05 Convergence criterion met
    9    -280.1755306400      8.43E-06 Convergence criterion met
 Total energy in the final basis set = -280.17553064

                    Orbital Energies (a.u.)
 --------------------------------------------------------------

 Alpha MOs
 -- Occupied --
-19.3824 -19.3648 -19.3647 -14.7775  -1.5459  -1.2914  -1.1892  -0.7813
 -0.7729  -0.7380  -0.7140  -0.5454  -0.4983  -0.4961  -0.4650  -0.4582

 Beta MOs
 -- Occupied --
-19.3821 -19.3514 -19.3514 -14.7782  -1.5435  -1.2690  -1.1561  -0.7731
 -0.7675  -0.7197  -0.6971  -0.4853  -0.4816  -0.4455  -0.4454

                    Cartesian Multipole Moments
 -----------------------------------------------------------------
    Charge (ESU x 10^10)
                 0.0000
    Dipole Moment (Debye)
         X       0.0010      Y      -1.1485      Z       0.0000
       Tot       1.1485
    Quadrupole Moments (Debye-Ang)
        XX     -22.5459     XY       0.0006     YY     -22.4574
        XZ       0.0000     YZ       0.0000     ZZ     -19.9354

 Total job time:  12.84s(wall), 56.13s(cpu)
        *  Thank you very much for using Q-Chem.  Have a nice day.  *
