 Q-Chem 5.3 (devel), Q-Chem, Inc., Pleasanton, CA (2020)
 Q-Chem 5.3.0 for Intel X86 EM64T Linux

User input:
--------------------------------------------------------------
$rem
   JOBTYPE  sp
   EXCHANGE   omegaB97X-D
   BASIS   6-311+G(2df,2pd)
   UNRESTRICTED   True
   max_scf_cycles   250
   geom_opt_max_cycles   1500
   basis2 6-31G*
   scf_algorithm rca_diis
   SYM_IGNORE  TRUE
   print_input   true
   geom_opt_dmax   80
   pop_mulliken false
   XC_GRID 000075000302
$end

$molecule
0 2
N       -0.1041385459     -0.0539215791     0.0000000000
O       0.0824936829     -1.2323690672     -0.0000000000
O       -1.0136553802     0.6819406030     -0.0000000000
O       1.0353005249     0.6004219653     -0.0000000000
$end
--------------------------------------------------------------

             Standard Nuclear Orientation (Angstroms)
    I     Atom           X                Y                Z
 ----------------------------------------------------------------
    1      N      -0.1041385459    -0.0539215791     0.0000000000
    2      O       0.0824936829    -1.2323690672     0.0000000000
    3      O      -1.0136553802     0.6819406030     0.0000000000
    4      O       1.0353005249     0.6004219653     0.0000000000
 ----------------------------------------------------------------

   10    -280.1086028803      1.15E-05 Convergence criterion met
   10    -280.2185281912      8.16E-06 Convergence criterion met
 Total energy in the final basis set = -280.21852819

                    Orbital Energies (a.u.)
 --------------------------------------------------------------

 Alpha MOs
 -- Occupied --
-19.4027 -19.3639 -19.3604 -14.7831  -1.4774  -1.2859  -1.2176  -0.7880
 -0.7393  -0.7187  -0.6979  -0.5744  -0.4935  -0.4890  -0.4798  -0.4580

 Beta MOs
 -- Occupied --
-19.3833 -19.3604 -19.3564 -14.7839  -1.4680  -1.2775  -1.1750  -0.7687
 -0.7371  -0.6986  -0.6823  -0.4839  -0.4768  -0.4693  -0.4582

                    Cartesian Multipole Moments
 -----------------------------------------------------------------
    Charge (ESU x 10^10)
                -0.0000
    Dipole Moment (Debye)
         X       0.1341      Y       0.1979      Z      -0.0000
       Tot       0.2391
    Quadrupole Moments (Debye-Ang)
        XX     -22.4131     XY       0.3022     YY     -22.8432
        XZ       0.0000     YZ       0.0000     ZZ     -20.0259

 Total job time:  12.04s(wall), 58.01s(cpu)
        *  Thank you very much for using Q-Chem.  Have a nice day.  *
