 Q-Chem 5.3 (devel), Q-Chem, Inc., Pleasanton, CA (2020)
 Q-Chem 5.3.0 for Intel X86 EM64T Linux

User input:
--------------------------------------------------------------
$rem
   JOBTYPE  sp
   EXCHANGE   omegaB97X-D
   BASIS   6-311+G(2df,2pd)
   UNRESTRICTED   True
   max_scf_cycles   250
   geom_opt_max_cycles   1500
   basis2 6-31G*
   scf_algorithm rca_diis
   SYM_IGNORE  TRUE
   print_input   true
   geom_opt_dmax   80
   pop_mulliken false
   XC_GRID 000075000302
$end

$molecule
0 2
N       0.0076527397     -0.1879604342     0.0000000000
O       -0.0044288638     -1.3403746130     -0.0000000000
O       -0.8687560412     0.7608833571     -0.0000000000
O       0.8655324471     0.7635236121     -0.0000000000
$end
--------------------------------------------------------------

             Standard Nuclear Orientation (Angstroms)
    I     Atom           X                Y                Z
 ----------------------------------------------------------------
    1      N       0.0076527397    -0.1879604342     0.0000000000
    2      O      -0.0044288638    -1.3403746130     0.0000000000
    3      O      -0.8687560412     0.7608833571     0.0000000000
    4      O       0.8655324471     0.7635236121     0.0000000000
 ----------------------------------------------------------------

    8    -280.0755057719      5.65E-05 Convergence criterion met
    7    -280.1845900586      9.63E-06 Convergence criterion met
 Total energy in the final basis set = -280.18459006

                    Orbital Energies (a.u.)
 --------------------------------------------------------------

 Alpha MOs
 -- Occupied --
-19.3843 -19.3672 -19.3647 -14.7826  -1.4734  -1.3206  -1.1454  -0.7948
 -0.7338  -0.7059  -0.6986  -0.5850  -0.5045  -0.4832  -0.4489  -0.4029

 Beta MOs
 -- Occupied --
-19.3852 -19.3524 -19.3495 -14.7833  -1.4632  -1.3049  -1.1095  -0.7806
 -0.7322  -0.6888  -0.6832  -0.4972  -0.4953  -0.4775  -0.4269

                    Cartesian Multipole Moments
 -----------------------------------------------------------------
    Charge (ESU x 10^10)
                -0.0000
    Dipole Moment (Debye)
         X       0.0332      Y      -0.7047      Z      -0.0000
       Tot       0.7055
    Quadrupole Moments (Debye-Ang)
        XX     -22.2579     XY       0.0086     YY     -22.6969
        XZ      -0.0000     YZ      -0.0000     ZZ     -20.0461

 Total job time:  10.79s(wall), 48.51s(cpu)
        *  Thank you very much for using Q-Chem.  Have a nice day.  *
