 Q-Chem 5.3 (devel), Q-Chem, Inc., Pleasanton, CA (2020)
 Q-Chem 5.3.0 for Intel X86 EM64T Linux

User input:
--------------------------------------------------------------
$rem
   JOBTYPE  sp
   EXCHANGE   omegaB97X-D
   BASIS   6-311+G(2df,2pd)
   UNRESTRICTED   True
   max_scf_cycles   250
   geom_opt_max_cycles   1500
   basis2 6-31G*
   scf_algorithm rca_diis
   SYM_IGNORE  TRUE
   print_input   true
   geom_opt_dmax   80
   pop_mulliken false
   XC_GRID 000075000302
$end

$molecule
0 2
N       0.1034947394     -0.0493240300     -0.0000000000
O       -0.0826841033     -1.2290033946     0.0000000000
O       -1.0387274996     0.5960803930     0.0000000000
O       1.0179171453     0.6783189536     0.0000000000
$end
--------------------------------------------------------------

             Standard Nuclear Orientation (Angstroms)
    I     Atom           X                Y                Z
 ----------------------------------------------------------------
    1      N       0.1034947394    -0.0493240300     0.0000000000
    2      O      -0.0826841033    -1.2290033946     0.0000000000
    3      O      -1.0387274996     0.5960803930     0.0000000000
    4      O       1.0179171453     0.6783189536     0.0000000000
 ----------------------------------------------------------------

   10    -280.1090533939      1.53E-05 Convergence criterion met
   10    -280.2190035879      8.83E-06 Convergence criterion met
 Total energy in the final basis set = -280.21900359

                    Orbital Energies (a.u.)
 --------------------------------------------------------------

 Alpha MOs
 -- Occupied --
-19.4028 -19.3632 -19.3610 -14.7831  -1.4780  -1.2858  -1.2186  -0.7880
 -0.7396  -0.7187  -0.6982  -0.5739  -0.4937  -0.4898  -0.4798  -0.4581

 Beta MOs
 -- Occupied --
-19.3835 -19.3600 -19.3567 -14.7839  -1.4685  -1.2771  -1.1764  -0.7686
 -0.7374  -0.6987  -0.6823  -0.4833  -0.4769  -0.4694  -0.4587

                    Cartesian Multipole Moments
 -----------------------------------------------------------------
    Charge (ESU x 10^10)
                -0.0000
    Dipole Moment (Debye)
         X      -0.1362      Y       0.2052      Z       0.0000
       Tot       0.2463
    Quadrupole Moments (Debye-Ang)
        XX     -22.4417     XY      -0.3193     YY     -22.8128
        XZ       0.0000     YZ      -0.0000     ZZ     -20.0224

 Total job time:  13.90s(wall), 63.88s(cpu)
        *  Thank you very much for using Q-Chem.  Have a nice day.  *
