 Q-Chem 5.3 (devel), Q-Chem, Inc., Pleasanton, CA (2020)
 Q-Chem 5.3.0 for Intel X86 EM64T Linux

User input:
--------------------------------------------------------------
$rem
   JOBTYPE  sp
   EXCHANGE   omegaB97X-D
   BASIS   6-311+G(2df,2pd)
   UNRESTRICTED   True
   max_scf_cycles   250
   geom_opt_max_cycles   1500
   basis2 6-31G*
   scf_algorithm rca_diis
   SYM_IGNORE  TRUE
   print_input   true
   geom_opt_dmax   80
   pop_mulliken false
   XC_GRID 000075000302
$end

$molecule
0 2
N       -0.0075281638     0.0954854717     -0.0000000000
O       0.0074182955     -1.1393616480     0.0000000000
O       -1.1178707081     0.5241289724     0.0000000000
O       1.1179808581     0.5158191259     0.0000000000
$end
--------------------------------------------------------------

             Standard Nuclear Orientation (Angstroms)
    I     Atom           X                Y                Z
 ----------------------------------------------------------------
    1      N      -0.0075281638     0.0954854717     0.0000000000
    2      O       0.0074182955    -1.1393616480     0.0000000000
    3      O      -1.1178707081     0.5241289724     0.0000000000
    4      O       1.1179808581     0.5158191259     0.0000000000
 ----------------------------------------------------------------

   10    -280.1045147433      1.45E-05 Convergence criterion met
   10    -280.2144734519      9.64E-06 Convergence criterion met
 Total energy in the final basis set = -280.21447345

                    Orbital Energies (a.u.)
 --------------------------------------------------------------

 Alpha MOs
 -- Occupied --
-19.3999 -19.3653 -19.3617 -14.7854  -1.4946  -1.2829  -1.2351  -0.7882
 -0.7486  -0.7180  -0.7065  -0.5714  -0.4962  -0.4920  -0.4813  -0.4555

 Beta MOs
 -- Occupied --
-19.3826 -19.3594 -19.3573 -14.7862  -1.4820  -1.2712  -1.2023  -0.7681
 -0.7456  -0.6961  -0.6845  -0.4889  -0.4759  -0.4717  -0.4550

                    Cartesian Multipole Moments
 -----------------------------------------------------------------
    Charge (ESU x 10^10)
                -0.0000
    Dipole Moment (Debye)
         X      -0.0077      Y      -0.2536      Z      -0.0000
       Tot       0.2537
    Quadrupole Moments (Debye-Ang)
        XX     -23.0894     XY       0.0583     YY     -22.1928
        XZ      -0.0000     YZ      -0.0000     ZZ     -19.9470

 Total job time:  14.36s(wall), 66.15s(cpu)
        *  Thank you very much for using Q-Chem.  Have a nice day.  *
