 Q-Chem 5.3 (devel), Q-Chem, Inc., Pleasanton, CA (2020)
 Q-Chem 5.3.0 for Intel X86 EM64T Linux

User input:
--------------------------------------------------------------
$rem
   JOBTYPE  sp
   EXCHANGE   omegaB97X-D
   BASIS   6-311+G(2df,2pd)
   UNRESTRICTED   True
   max_scf_cycles   250
   geom_opt_max_cycles   1500
   basis2 6-31G*
   scf_algorithm rca_diis
   SYM_IGNORE  TRUE
   print_input   true
   geom_opt_dmax   80
   pop_mulliken false
   XC_GRID 000075000302
$end

$molecule
0 2
N       0.0056293342     -0.1552637809     0.0000000000
O       -0.0035189080     -1.3180128086     -0.0000000000
O       -0.9141761921     0.7334171052     -0.0000000000
O       0.9120660477     0.7359314062     -0.0000000000
$end
--------------------------------------------------------------

             Standard Nuclear Orientation (Angstroms)
    I     Atom           X                Y                Z
 ----------------------------------------------------------------
    1      N       0.0056293342    -0.1552637809     0.0000000000
    2      O      -0.0035189080    -1.3180128086     0.0000000000
    3      O      -0.9141761921     0.7334171052     0.0000000000
    4      O       0.9120660477     0.7359314062     0.0000000000
 ----------------------------------------------------------------

    8    -280.0981269022      5.28E-05 Convergence criterion met
    9    -280.2066755692      3.48E-06 Convergence criterion met
 Total energy in the final basis set = -280.20667557

                    Orbital Energies (a.u.)
 --------------------------------------------------------------

 Alpha MOs
 -- Occupied --
-19.3760 -19.3755 -19.3742 -14.7839  -1.4713  -1.3046  -1.1733  -0.7921
 -0.7334  -0.7056  -0.7035  -0.5758  -0.4974  -0.4837  -0.4637  -0.4351

 Beta MOs
 -- Occupied --
-19.3750 -19.3617 -19.3607 -14.7846  -1.4604  -1.2903  -1.1376  -0.7759
 -0.7314  -0.6867  -0.6866  -0.4908  -0.4865  -0.4766  -0.4421

                    Cartesian Multipole Moments
 -----------------------------------------------------------------
    Charge (ESU x 10^10)
                -0.0000
    Dipole Moment (Debye)
         X       0.0155      Y      -0.4476      Z       0.0000
       Tot       0.4479
    Quadrupole Moments (Debye-Ang)
        XX     -22.0997     XY       0.0036     YY     -22.9450
        XZ       0.0000     YZ       0.0000     ZZ     -20.0509

 Total job time:  11.32s(wall), 53.20s(cpu)
        *  Thank you very much for using Q-Chem.  Have a nice day.  *
