 Q-Chem 5.3 (devel), Q-Chem, Inc., Pleasanton, CA (2020)
 Q-Chem 5.3.0 for Intel X86 EM64T Linux

User input:
--------------------------------------------------------------
$rem
   JOBTYPE  sp
   EXCHANGE   omegaB97X-D
   BASIS   6-311+G(2df,2pd)
   UNRESTRICTED   True
   max_scf_cycles   250
   geom_opt_max_cycles   1500
   basis2 6-31G*
   scf_algorithm rca_diis
   SYM_IGNORE  TRUE
   print_input   true
   geom_opt_dmax   80
   pop_mulliken false
   XC_GRID 000075000302
$end

$molecule
0 2
N       0.0016768953     -0.0868529420     0.0000000000
O       -0.0012134874     -1.2702494436     -0.0000000000
O       -0.9930747179     0.6760547953     -0.0000000000
O       0.9926115917     0.6771195123     -0.0000000000
$end
--------------------------------------------------------------

             Standard Nuclear Orientation (Angstroms)
    I     Atom           X                Y                Z
 ----------------------------------------------------------------
    1      N       0.0016768953    -0.0868529420     0.0000000000
    2      O      -0.0012134874    -1.2702494436     0.0000000000
    3      O      -0.9930747179     0.6760547953     0.0000000000
    4      O       0.9926115917     0.6771195123     0.0000000000
 ----------------------------------------------------------------

    8    -280.1158210735      8.44E-05 Convergence criterion met
   10    -280.2243802372      2.83E-06 Convergence criterion met
 Total energy in the final basis set = -280.22438024

                    Orbital Energies (a.u.)
 --------------------------------------------------------------

 Alpha MOs
 -- Occupied --
-19.3894 -19.3887 -19.3601 -14.7856  -1.4728  -1.2764  -1.2204  -0.7918
 -0.7358  -0.7132  -0.7048  -0.5605  -0.5020  -0.4860  -0.4854  -0.4590

 Beta MOs
 -- Occupied --
-19.3758 -19.3754 -19.3593 -14.7864  -1.4612  -1.2630  -1.1871  -0.7721
 -0.7332  -0.6931  -0.6840  -0.4794  -0.4729  -0.4704  -0.4653

                    Cartesian Multipole Moments
 -----------------------------------------------------------------
    Charge (ESU x 10^10)
                -0.0000
    Dipole Moment (Debye)
         X      -0.0052      Y       0.0255      Z       0.0000
       Tot       0.0261
    Quadrupole Moments (Debye-Ang)
        XX     -22.0778     XY      -0.0041     YY     -23.1522
        XZ       0.0000     YZ       0.0000     ZZ     -20.0550

 Total job time:  12.73s(wall), 62.98s(cpu)
        *  Thank you very much for using Q-Chem.  Have a nice day.  *
