 Q-Chem 5.3 (devel), Q-Chem, Inc., Pleasanton, CA (2020)
 Q-Chem 5.3.0 for Intel X86 EM64T Linux

User input:
--------------------------------------------------------------
$rem
   JOBTYPE  sp
   EXCHANGE   omegaB97X-D
   BASIS   6-311+G(2df,2pd)
   UNRESTRICTED   True
   max_scf_cycles   250
   geom_opt_max_cycles   1500
   basis2 6-31G*
   scf_algorithm rca_diis
   SYM_IGNORE  TRUE
   print_input   true
   geom_opt_dmax   80
   pop_mulliken false
   XC_GRID 000075000302
$end

$molecule
0 2
N       0.1021970265     -0.0491009616     -0.0000000000
O       0.0509815839     -1.2417343227     0.0000000000
O       -1.1051358895     0.7253523710     0.0000000000
O       0.9519575609     0.5615548353     0.0000000000
$end
--------------------------------------------------------------

             Standard Nuclear Orientation (Angstroms)
    I     Atom           X                Y                Z
 ----------------------------------------------------------------
    1      N       0.1021970265    -0.0491009616     0.0000000000
    2      O       0.0509815839    -1.2417343227     0.0000000000
    3      O      -1.1051358895     0.7253523710     0.0000000000
    4      O       0.9519575609     0.5615548353     0.0000000000
 ----------------------------------------------------------------

    9    -280.0534702516      6.30E-05 Convergence criterion met
   13    -280.1715493804      5.61E-06 Convergence criterion met
 Total energy in the final basis set = -280.17154938

                    Orbital Energies (a.u.)
 --------------------------------------------------------------

 Alpha MOs
 -- Occupied --
-19.3980 -19.3714 -19.3304 -14.7710  -1.5371  -1.2834  -1.1960  -0.7878
 -0.7663  -0.7340  -0.6934  -0.5651  -0.4947  -0.4914  -0.4706  -0.4471

 Beta MOs
 -- Occupied --
-19.3767 -19.3688 -19.3286 -14.7718  -1.5329  -1.2790  -1.1403  -0.7670
 -0.7655  -0.7200  -0.6853  -0.4780  -0.4749  -0.4614  -0.4499

                    Cartesian Multipole Moments
 -----------------------------------------------------------------
    Charge (ESU x 10^10)
                -0.0000
    Dipole Moment (Debye)
         X       0.2397      Y       0.7320      Z       0.0000
       Tot       0.7702
    Quadrupole Moments (Debye-Ang)
        XX     -21.9065     XY       0.1662     YY     -23.2191
        XZ       0.0000     YZ       0.0000     ZZ     -19.9533

 Total job time:  18.43s(wall), 83.54s(cpu)
        *  Thank you very much for using Q-Chem.  Have a nice day.  *
