 Q-Chem 5.3 (devel), Q-Chem, Inc., Pleasanton, CA (2020)
 Q-Chem 5.3.0 for Intel X86 EM64T Linux

User input:
--------------------------------------------------------------
$rem
   JOBTYPE  sp
   EXCHANGE   omegaB97X-D
   BASIS   6-311+G(2df,2pd)
   UNRESTRICTED   True
   max_scf_cycles   250
   geom_opt_max_cycles   1500
   basis2 6-31G*
   scf_algorithm rca_diis
   SYM_IGNORE  TRUE
   print_input   true
   geom_opt_dmax   80
   pop_mulliken false
   XC_GRID 000075000302
$end

$molecule
0 2
N       -0.0003698266     -0.0436395301     0.0000000000
O       0.0001566210     -1.2271313053     -0.0000000000
O       -1.0025240081     0.6334540948     -0.0000000000
O       1.0027374954     0.6333886626     -0.0000000000
$end
--------------------------------------------------------------

             Standard Nuclear Orientation (Angstroms)
    I     Atom           X                Y                Z
 ----------------------------------------------------------------
    1      N      -0.0003698266    -0.0436395301     0.0000000000
    2      O       0.0001566210    -1.2271313053     0.0000000000
    3      O      -1.0025240081     0.6334540948     0.0000000000
    4      O       1.0027374954     0.6333886626     0.0000000000
 ----------------------------------------------------------------

    9    -280.1124479194      3.22E-05 Convergence criterion met
   11    -280.2228519783      1.35E-06 Convergence criterion met
 Total energy in the final basis set = -280.22285198

                    Orbital Energies (a.u.)
 --------------------------------------------------------------

 Alpha MOs
 -- Occupied --
-19.3860 -19.3858 -19.3571 -14.7860  -1.4993  -1.2767  -1.2552  -0.7865
 -0.7530  -0.7196  -0.7109  -0.5536  -0.5173  -0.4921  -0.4840  -0.4590

 Beta MOs
 -- Occupied --
-19.3740 -19.3738 -19.3532 -14.7869  -1.4875  -1.2617  -1.2271  -0.7664
 -0.7502  -0.6967  -0.6873  -0.4757  -0.4748  -0.4735  -0.4664

                    Cartesian Multipole Moments
 -----------------------------------------------------------------
    Charge (ESU x 10^10)
                 0.0000
    Dipole Moment (Debye)
         X       0.0016      Y       0.2004      Z       0.0000
       Tot       0.2004
    Quadrupole Moments (Debye-Ang)
        XX     -22.2367     XY       0.0015     YY     -23.0059
        XZ      -0.0000     YZ       0.0000     ZZ     -19.9112

 Total job time:  14.31s(wall), 67.57s(cpu)
        *  Thank you very much for using Q-Chem.  Have a nice day.  *
