 Q-Chem 5.3 (devel), Q-Chem, Inc., Pleasanton, CA (2020)
 Q-Chem 5.3.0 for Intel X86 EM64T Linux

User input:
--------------------------------------------------------------
$rem
   JOBTYPE  sp
   EXCHANGE   omegaB97X-D
   BASIS   6-311+G(2df,2pd)
   UNRESTRICTED   True
   max_scf_cycles   250
   geom_opt_max_cycles   1500
   basis2 6-31G*
   scf_algorithm rca_diis
   SYM_IGNORE  TRUE
   print_input   true
   geom_opt_dmax   80
   pop_mulliken false
   XC_GRID 000075000302
$end

$molecule
0 2
N       -0.0039734623     0.0212892848     -0.0000000000
O       0.0034712925     -1.1930104494     0.0000000000
O       -1.0805441132     0.5857462965     0.0000000000
O       1.0810465647     0.5820467901     0.0000000000
$end
--------------------------------------------------------------

             Standard Nuclear Orientation (Angstroms)
    I     Atom           X                Y                Z
 ----------------------------------------------------------------
    1      N      -0.0039734623     0.0212892848     0.0000000000
    2      O       0.0034712925    -1.1930104494     0.0000000000
    3      O      -1.0805441132     0.5857462965     0.0000000000
    4      O       1.0810465647     0.5820467901     0.0000000000
 ----------------------------------------------------------------

    8    -280.1151729625      8.22E-05 Convergence criterion met
   10    -280.2243703616      3.01E-06 Convergence criterion met
 Total energy in the final basis set = -280.22437036

                    Orbital Energies (a.u.)
 --------------------------------------------------------------

 Alpha MOs
 -- Occupied --
-19.3927 -19.3764 -19.3727 -14.7879  -1.4842  -1.2590  -1.2541  -0.7902
 -0.7435  -0.7158  -0.7127  -0.5453  -0.5222  -0.4913  -0.4833  -0.4643

 Beta MOs
 -- Occupied --
-19.3807 -19.3679 -19.3652 -14.7889  -1.4726  -1.2408  -1.2292  -0.7709
 -0.7409  -0.6933  -0.6881  -0.4763  -0.4730  -0.4708  -0.4613

                    Cartesian Multipole Moments
 -----------------------------------------------------------------
    Charge (ESU x 10^10)
                -0.0000
    Dipole Moment (Debye)
         X       0.0203      Y      -0.1924      Z      -0.0000
       Tot       0.1935
    Quadrupole Moments (Debye-Ang)
        XX     -22.8791     XY       0.0375     YY     -22.4318
        XZ       0.0000     YZ       0.0000     ZZ     -20.0186

 Total job time:  12.78s(wall), 63.88s(cpu)
        *  Thank you very much for using Q-Chem.  Have a nice day.  *
