 Q-Chem 5.3 (devel), Q-Chem, Inc., Pleasanton, CA (2020)
 Q-Chem 5.3.0 for Intel X86 EM64T Linux

User input:
--------------------------------------------------------------
$rem
   JOBTYPE  sp
   EXCHANGE   omegaB97X-D
   BASIS   6-311+G(2df,2pd)
   UNRESTRICTED   True
   max_scf_cycles   250
   geom_opt_max_cycles   1500
   basis2 6-31G*
   scf_algorithm rca_diis
   SYM_IGNORE  TRUE
   print_input   true
   geom_opt_dmax   80
   pop_mulliken false
   XC_GRID 000075000302
$end

$molecule
0 2
N       -0.0002476637     -0.0516438460     -0.0462950701
O       0.0001854449     -1.2436679407     0.0170773190
O       -1.0248413759     0.6457947085     0.0146164028
O       1.0249038765     0.6455890002     0.0146013483
$end
--------------------------------------------------------------

             Standard Nuclear Orientation (Angstroms)
    I     Atom           X                Y                Z
 ----------------------------------------------------------------
    1      N      -0.0002476637    -0.0516438460    -0.0462950701
    2      O       0.0001854449    -1.2436679407     0.0170773190
    3      O      -1.0248413759     0.6457947085     0.0146164028
    4      O       1.0249038765     0.6455890002     0.0146013483
 ----------------------------------------------------------------

    9    -280.1150043730      3.56E-05 Convergence criterion met
   11    -280.2237785321      2.99E-06 Convergence criterion met
 Total energy in the final basis set = -280.22377853

                    Orbital Energies (a.u.)
 --------------------------------------------------------------

 Alpha MOs
 -- Occupied --
-19.3903 -19.3900 -19.3612 -14.7865  -1.4758  -1.2651  -1.2378  -0.7920
 -0.7380  -0.7160  -0.7064  -0.5519  -0.5153  -0.4900  -0.4827  -0.4612

 Beta MOs
 -- Occupied --
-19.3779 -19.3777 -19.3581 -14.7874  -1.4645  -1.2502  -1.2078  -0.7723
 -0.7352  -0.6942  -0.6845  -0.4756  -0.4740  -0.4670  -0.4651

                    Cartesian Multipole Moments
 -----------------------------------------------------------------
    Charge (ESU x 10^10)
                 0.0000
    Dipole Moment (Debye)
         X       0.0017      Y       0.1429      Z      -0.1136
       Tot       0.1826
    Quadrupole Moments (Debye-Ang)
        XX     -22.2465     XY       0.0013     YY     -23.0521
        XZ       0.0001     YZ       0.0344     ZZ     -20.0363

 Total job time:  15.50s(wall), 67.94s(cpu)
        *  Thank you very much for using Q-Chem.  Have a nice day.  *
