 Q-Chem 5.3 (devel), Q-Chem, Inc., Pleasanton, CA (2020)
 Q-Chem 5.3.0 for Intel X86 EM64T Linux

User input:
--------------------------------------------------------------
$rem
   JOBTYPE  sp
   EXCHANGE   omegaB97X-D
   BASIS   6-311+G(2df,2pd)
   UNRESTRICTED   True
   max_scf_cycles   250
   geom_opt_max_cycles   1500
   basis2 6-31G*
   scf_algorithm rca_diis
   SYM_IGNORE  TRUE
   print_input   true
   geom_opt_dmax   80
   pop_mulliken false
   XC_GRID 000075000302
$end

$molecule
0 2
N       0.0765976060     -0.0500456769     -0.0000000000
O       0.0383275394     -1.2431583459     0.0000000000
O       -1.0850067751     0.7060714567     0.0000000000
O       0.9700819115     0.5832044881     0.0000000000
$end
--------------------------------------------------------------

             Standard Nuclear Orientation (Angstroms)
    I     Atom           X                Y                Z
 ----------------------------------------------------------------
    1      N       0.0765976060    -0.0500456769     0.0000000000
    2      O       0.0383275394    -1.2431583459     0.0000000000
    3      O      -1.0850067751     0.7060714567     0.0000000000
    4      O       0.9700819115     0.5832044881     0.0000000000
 ----------------------------------------------------------------

    9    -280.0858998837      6.67E-05 Convergence criterion met
   11    -280.1996209060      8.30E-06 Convergence criterion met
 Total energy in the final basis set = -280.19962091

                    Orbital Energies (a.u.)
 --------------------------------------------------------------

 Alpha MOs
 -- Occupied --
-19.4059 -19.3677 -19.3405 -14.7759  -1.5065  -1.2795  -1.2129  -0.7886
 -0.7513  -0.7258  -0.6940  -0.5678  -0.4981  -0.4966  -0.4732  -0.4510

 Beta MOs
 -- Occupied --
-19.3858 -19.3638 -19.3383 -14.7767  -1.5002  -1.2734  -1.1631  -0.7675
 -0.7498  -0.7088  -0.6821  -0.4775  -0.4755  -0.4677  -0.4549

                    Cartesian Multipole Moments
 -----------------------------------------------------------------
    Charge (ESU x 10^10)
                -0.0000
    Dipole Moment (Debye)
         X      -0.0342      Y       0.5540      Z       0.0000
       Tot       0.5550
    Quadrupole Moments (Debye-Ang)
        XX     -22.0214     XY      -0.0134     YY     -23.1504
        XZ       0.0000     YZ      -0.0000     ZZ     -19.9889

 Total job time:  13.60s(wall), 64.39s(cpu)
        *  Thank you very much for using Q-Chem.  Have a nice day.  *
