 Q-Chem 5.3 (devel), Q-Chem, Inc., Pleasanton, CA (2020)
 Q-Chem 5.3.0 for Intel X86 EM64T Linux

User input:
--------------------------------------------------------------
$rem
   JOBTYPE  sp
   EXCHANGE   omegaB97X-D
   BASIS   6-311+G(2df,2pd)
   UNRESTRICTED   True
   max_scf_cycles   250
   geom_opt_max_cycles   1500
   basis2 6-31G*
   scf_algorithm rca_diis
   SYM_IGNORE  TRUE
   print_input   true
   geom_opt_dmax   80
   pop_mulliken false
   XC_GRID 000075000302
$end

$molecule
0 2
N       -0.0003528911     0.1130248057     0.0000000000
O       0.0001703661     -1.4010664523     -0.0000000000
O       -0.9846301322     0.6420728528     -0.0000000000
O       0.9848129389     0.6420407159     -0.0000000000
$end
--------------------------------------------------------------

             Standard Nuclear Orientation (Angstroms)
    I     Atom           X                Y                Z
 ----------------------------------------------------------------
    1      N      -0.0003528911     0.1130248057     0.0000000000
    2      O       0.0001703661    -1.4010664523     0.0000000000
    3      O      -0.9846301322     0.6420728528     0.0000000000
    4      O       0.9848129389     0.6420407159     0.0000000000
 ----------------------------------------------------------------

   11    -280.0666647877      8.10E-05 Convergence criterion met
   14    -280.1818212099      5.94E-06 Convergence criterion met
 Total energy in the final basis set = -280.18182121

                    Orbital Energies (a.u.)
 --------------------------------------------------------------

 Alpha MOs
 -- Occupied --
-19.4029 -19.3478 -19.3475 -14.7675  -1.5026  -1.2966  -1.1769  -0.7874
 -0.7478  -0.7213  -0.6855  -0.5644  -0.4916  -0.4914  -0.4754  -0.4473

 Beta MOs
 -- Occupied --
-19.3807 -19.3464 -19.3461 -14.7683  -1.5006  -1.2940  -1.1133  -0.7691
 -0.7477  -0.7124  -0.6802  -0.4740  -0.4708  -0.4631  -0.4535

                    Cartesian Multipole Moments
 -----------------------------------------------------------------
    Charge (ESU x 10^10)
                -0.0000
    Dipole Moment (Debye)
         X      -0.0047      Y      -0.1979      Z       0.0000
       Tot       0.1979
    Quadrupole Moments (Debye-Ang)
        XX     -22.7273     XY      -0.0007     YY     -22.3104
        XZ       0.0000     YZ       0.0000     ZZ     -20.0374

 Total job time:  18.45s(wall), 85.27s(cpu)
        *  Thank you very much for using Q-Chem.  Have a nice day.  *
