 Q-Chem 5.3 (devel), Q-Chem, Inc., Pleasanton, CA (2020)
 Q-Chem 5.3.0 for Intel X86 EM64T Linux

User input:
--------------------------------------------------------------
$rem
   JOBTYPE  sp
   EXCHANGE   omegaB97X-D
   BASIS   6-311+G(2df,2pd)
   UNRESTRICTED   True
   max_scf_cycles   250
   geom_opt_max_cycles   1500
   basis2 6-31G*
   scf_algorithm rca_diis
   SYM_IGNORE  TRUE
   print_input   true
   geom_opt_dmax   80
   pop_mulliken false
   XC_GRID 000075000302
$end

$molecule
0 2
N       0.0003878228     -0.0913734563     -0.0000000000
O       0.0003019597     -1.3361592284     0.0000000000
O       -1.1440089472     0.7122386151     0.0000000000
O       1.1433194465     0.7113659916     0.0000000000
$end
--------------------------------------------------------------

             Standard Nuclear Orientation (Angstroms)
    I     Atom           X                Y                Z
 ----------------------------------------------------------------
    1      N       0.0003878228    -0.0913734563     0.0000000000
    2      O       0.0003019597    -1.3361592284     0.0000000000
    3      O      -1.1440089472     0.7122386151     0.0000000000
    4      O       1.1433194465     0.7113659916     0.0000000000
 ----------------------------------------------------------------

   11    -280.0742779259      2.73E-05 Convergence criterion met
   10    -280.1790700692      9.44E-06 Convergence criterion met
 Total energy in the final basis set = -280.17907007

                    Orbital Energies (a.u.)
 --------------------------------------------------------------

 Alpha MOs
 -- Occupied --
-19.4038 -19.4029 -19.3870 -14.7843  -1.3796  -1.2131  -1.1698  -0.8174
 -0.6911  -0.6882  -0.6766  -0.5387  -0.5083  -0.4816  -0.4807  -0.4704

 Beta MOs
 -- Occupied --
-19.3901 -19.3895 -19.3872 -14.7853  -1.3734  -1.1938  -1.1317  -0.8009
 -0.6763  -0.6760  -0.6726  -0.4732  -0.4725  -0.4589  -0.4390

                    Cartesian Multipole Moments
 -----------------------------------------------------------------
    Charge (ESU x 10^10)
                 0.0000
    Dipole Moment (Debye)
         X      -0.0120      Y      -0.2345      Z       0.0000
       Tot       0.2348
    Quadrupole Moments (Debye-Ang)
        XX     -22.2113     XY      -0.0062     YY     -23.0194
        XZ      -0.0000     YZ      -0.0000     ZZ     -20.6960

 Total job time:  14.51s(wall), 66.86s(cpu)
        *  Thank you very much for using Q-Chem.  Have a nice day.  *
