 Q-Chem 5.3 (devel), Q-Chem, Inc., Pleasanton, CA (2020)
 Q-Chem 5.3.0 for Intel X86 EM64T Linux

User input:
--------------------------------------------------------------
$rem
   JOBTYPE  sp
   EXCHANGE   omegaB97X-D
   BASIS   6-311+G(2df,2pd)
   UNRESTRICTED   True
   max_scf_cycles   250
   geom_opt_max_cycles   1500
   basis2 6-31G*
   scf_algorithm rca_diis
   SYM_IGNORE  TRUE
   print_input   true
   geom_opt_dmax   80
   pop_mulliken false
   XC_GRID 000075000302
$end

$molecule
0 2
N       -0.0258641782     -0.0513646379     0.0000000000
O       -0.0125510250     -1.2449916874     -0.0000000000
O       -1.0074875661     0.6258759858     -0.0000000000
O       1.0459030511     0.6665522616     -0.0000000000
$end
--------------------------------------------------------------

             Standard Nuclear Orientation (Angstroms)
    I     Atom           X                Y                Z
 ----------------------------------------------------------------
    1      N      -0.0258641782    -0.0513646379     0.0000000000
    2      O      -0.0125510250    -1.2449916874     0.0000000000
    3      O      -1.0074875661     0.6258759858     0.0000000000
    4      O       1.0459030511     0.6665522616     0.0000000000
 ----------------------------------------------------------------

   10    -280.1141861577      3.91E-05 Convergence criterion met
   11    -280.2234697086      6.44E-06 Convergence criterion met
 Total energy in the final basis set = -280.22346971

                    Orbital Energies (a.u.)
 --------------------------------------------------------------

 Alpha MOs
 -- Occupied --
-19.4025 -19.3776 -19.3580 -14.7850  -1.4777  -1.2676  -1.2355  -0.7916
 -0.7389  -0.7181  -0.7027  -0.5575  -0.5105  -0.4945  -0.4796  -0.4593

 Beta MOs
 -- Occupied --
-19.3866 -19.3689 -19.3551 -14.7859  -1.4671  -1.2555  -1.2008  -0.7712
 -0.7364  -0.6968  -0.6828  -0.4752  -0.4725  -0.4713  -0.4636

                    Cartesian Multipole Moments
 -----------------------------------------------------------------
    Charge (ESU x 10^10)
                -0.0000
    Dipole Moment (Debye)
         X       0.1558      Y       0.2108      Z      -0.0000
       Tot       0.2621
    Quadrupole Moments (Debye-Ang)
        XX     -22.2100     XY       0.0898     YY     -23.0620
        XZ       0.0000     YZ      -0.0000     ZZ     -20.0452

 Total job time:  14.36s(wall), 67.63s(cpu)
        *  Thank you very much for using Q-Chem.  Have a nice day.  *
