 Q-Chem 5.3 (devel), Q-Chem, Inc., Pleasanton, CA (2020)
 Q-Chem 5.3.0 for Intel X86 EM64T Linux

User input:
--------------------------------------------------------------
$rem
   JOBTYPE  sp
   EXCHANGE   omegaB97X-D
   BASIS   6-311+G(2df,2pd)
   UNRESTRICTED   True
   max_scf_cycles   250
   geom_opt_max_cycles   1500
   basis2 6-31G*
   scf_algorithm rca_diis
   SYM_IGNORE  TRUE
   print_input   true
   geom_opt_dmax   80
   pop_mulliken false
   XC_GRID 000075000302
$end

$molecule
0 2
N       -0.0108966777     0.1701072176     -0.0000000000
O       0.0120278796     -1.0852360682     0.0000000000
O       -1.1384403155     0.4625239746     0.0000000000
O       1.1373093955     0.4486767980     0.0000000000
$end
--------------------------------------------------------------

             Standard Nuclear Orientation (Angstroms)
    I     Atom           X                Y                Z
 ----------------------------------------------------------------
    1      N      -0.0108966777     0.1701072176     0.0000000000
    2      O       0.0120278796    -1.0852360682     0.0000000000
    3      O      -1.1384403155     0.4625239746     0.0000000000
    4      O       1.1373093955     0.4486767980     0.0000000000
 ----------------------------------------------------------------

    8    -280.0705923979      6.88E-05 Convergence criterion met
   10    -280.1819063592      2.07E-06 Convergence criterion met
 Total energy in the final basis set = -280.18190636

                    Orbital Energies (a.u.)
 --------------------------------------------------------------

 Alpha MOs
 -- Occupied --
-19.3798 -19.3640 -19.3610 -14.7836  -1.5067  -1.3126  -1.2065  -0.7830
 -0.7549  -0.7187  -0.7019  -0.5875  -0.4883  -0.4792  -0.4741  -0.4424

 Beta MOs
 -- Occupied --
-19.3606 -19.3588 -19.3578 -14.7843  -1.4949  -1.3033  -1.1689  -0.7663
 -0.7522  -0.6931  -0.6862  -0.5103  -0.4842  -0.4567  -0.4417

                    Cartesian Multipole Moments
 -----------------------------------------------------------------
    Charge (ESU x 10^10)
                -0.0000
    Dipole Moment (Debye)
         X      -0.0379      Y       0.1322      Z      -0.0000
       Tot       0.1375
    Quadrupole Moments (Debye-Ang)
        XX     -23.0091     XY       0.0683     YY     -22.1763
        XZ       0.0000     YZ       0.0000     ZZ     -19.8755

 Total job time:  12.36s(wall), 58.20s(cpu)
        *  Thank you very much for using Q-Chem.  Have a nice day.  *
