 Q-Chem 5.3 (devel), Q-Chem, Inc., Pleasanton, CA (2020)
 Q-Chem 5.3.0 for Intel X86 EM64T Linux

User input:
--------------------------------------------------------------
$rem
   JOBTYPE  sp
   EXCHANGE   omegaB97X-D
   BASIS   6-311+G(2df,2pd)
   UNRESTRICTED   True
   max_scf_cycles   250
   geom_opt_max_cycles   1500
   basis2 6-31G*
   scf_algorithm rca_diis
   SYM_IGNORE  TRUE
   print_input   true
   geom_opt_dmax   80
   pop_mulliken false
   XC_GRID 000075000302
$end

$molecule
0 2
N       -0.2561132610     -0.0584758640     0.0000000000
O       0.2003200157     -1.1599242460     -0.0000000000
O       -0.9938518337     0.7073926009     -0.0000000000
O       1.0496453607     0.5070794312     -0.0000000000
$end
--------------------------------------------------------------

             Standard Nuclear Orientation (Angstroms)
    I     Atom           X                Y                Z
 ----------------------------------------------------------------
    1      N      -0.2561132610    -0.0584758640     0.0000000000
    2      O       0.2003200157    -1.1599242460     0.0000000000
    3      O      -0.9938518337     0.7073926009     0.0000000000
    4      O       1.0496453607     0.5070794312     0.0000000000
 ----------------------------------------------------------------

    9    -280.0261253461      8.82E-05 Convergence criterion met
    9    -280.1432820623      9.50E-06 Convergence criterion met
 Total energy in the final basis set = -280.14328206

                    Orbital Energies (a.u.)
 --------------------------------------------------------------

 Alpha MOs
 -- Occupied --
-19.3897 -19.3669 -19.3290 -14.7820  -1.5236  -1.3486  -1.1300  -0.7801
 -0.7676  -0.7328  -0.7081  -0.5772  -0.5078  -0.4523  -0.4398  -0.4203

 Beta MOs
 -- Occupied --
-19.3900 -19.3602 -19.3086 -14.7827  -1.5213  -1.3369  -1.0810  -0.7723
 -0.7676  -0.7113  -0.6996  -0.5135  -0.5027  -0.4239  -0.4144

                    Cartesian Multipole Moments
 -----------------------------------------------------------------
    Charge (ESU x 10^10)
                -0.0000
    Dipole Moment (Debye)
         X      -1.5118      Y       0.0363      Z       0.0000
       Tot       1.5122
    Quadrupole Moments (Debye-Ang)
        XX     -22.6200     XY      -0.1258     YY     -22.2152
        XZ      -0.0000     YZ       0.0000     ZZ     -19.9634

 Total job time:  13.94s(wall), 62.25s(cpu)
        *  Thank you very much for using Q-Chem.  Have a nice day.  *
