 Q-Chem 5.3 (devel), Q-Chem, Inc., Pleasanton, CA (2020)
 Q-Chem 5.3.0 for Intel X86 EM64T Linux

User input:
--------------------------------------------------------------
$rem
   JOBTYPE  sp
   EXCHANGE   omegaB97X-D
   BASIS   6-311+G(2df,2pd)
   UNRESTRICTED   True
   max_scf_cycles   250
   geom_opt_max_cycles   1500
   basis2 6-31G*
   scf_algorithm rca_diis
   SYM_IGNORE  TRUE
   print_input   true
   geom_opt_dmax   80
   pop_mulliken false
   XC_GRID 000075000302
$end

$molecule
0 2
N       -0.1026782883     -0.0497546827     0.0000000000
O       -0.0506473549     -1.2423027140     -0.0000000000
O       -0.9527305033     0.5623427905     -0.0000000000
O       1.1060564283     0.7257865282     -0.0000000000
$end
--------------------------------------------------------------

             Standard Nuclear Orientation (Angstroms)
    I     Atom           X                Y                Z
 ----------------------------------------------------------------
    1      N      -0.1026782883    -0.0497546827     0.0000000000
    2      O      -0.0506473549    -1.2423027140     0.0000000000
    3      O      -0.9527305033     0.5623427905     0.0000000000
    4      O       1.1060564283     0.7257865282     0.0000000000
 ----------------------------------------------------------------

    9    -280.0543302214      6.33E-05 Convergence criterion met
   13    -280.1722872027      6.44E-06 Convergence criterion met
 Total energy in the final basis set = -280.17228720

                    Orbital Energies (a.u.)
 --------------------------------------------------------------

 Alpha MOs
 -- Occupied --
-19.3980 -19.3714 -19.3306 -14.7710  -1.5360  -1.2834  -1.1953  -0.7877
 -0.7657  -0.7338  -0.6933  -0.5652  -0.4946  -0.4911  -0.4707  -0.4472

 Beta MOs
 -- Occupied --
-19.3767 -19.3688 -19.3290 -14.7718  -1.5319  -1.2791  -1.1394  -0.7670
 -0.7649  -0.7199  -0.6853  -0.4779  -0.4749  -0.4614  -0.4501

                    Cartesian Multipole Moments
 -----------------------------------------------------------------
    Charge (ESU x 10^10)
                -0.0000
    Dipole Moment (Debye)
         X      -0.2379      Y       0.7250      Z       0.0000
       Tot       0.7631
    Quadrupole Moments (Debye-Ang)
        XX     -21.9093     XY      -0.1653     YY     -23.2169
        XZ       0.0000     YZ       0.0000     ZZ     -19.9577

 Total job time:  15.30s(wall), 71.22s(cpu)
        *  Thank you very much for using Q-Chem.  Have a nice day.  *
