 Q-Chem 5.3 (devel), Q-Chem, Inc., Pleasanton, CA (2020)
 Q-Chem 5.3.0 for Intel X86 EM64T Linux

User input:
--------------------------------------------------------------
$rem
   JOBTYPE  sp
   EXCHANGE   omegaB97X-D
   BASIS   6-311+G(2df,2pd)
   UNRESTRICTED   True
   max_scf_cycles   250
   geom_opt_max_cycles   1500
   basis2 6-31G*
   scf_algorithm rca_diis
   SYM_IGNORE  TRUE
   print_input   true
   geom_opt_dmax   80
   pop_mulliken false
   XC_GRID 000075000302
$end

$molecule
0 2
N       -0.0057733202     0.0582674884     -0.0000000000
O       0.0053621510     -1.1663119471     0.0000000000
O       -1.1013120462     0.5549968079     0.0000000000
O       1.1017234971     0.5491195729     0.0000000000
$end
--------------------------------------------------------------

             Standard Nuclear Orientation (Angstroms)
    I     Atom           X                Y                Z
 ----------------------------------------------------------------
    1      N      -0.0057733202     0.0582674884     0.0000000000
    2      O       0.0053621510    -1.1663119471     0.0000000000
    3      O      -1.1013120462     0.5549968079     0.0000000000
    4      O       1.1017234971     0.5491195729     0.0000000000
 ----------------------------------------------------------------

    9    -280.1120446756      6.05E-05 Convergence criterion met
   10    -280.2215692490      6.75E-06 Convergence criterion met
 Total energy in the final basis set = -280.22156925

                    Orbital Energies (a.u.)
 --------------------------------------------------------------

 Alpha MOs
 -- Occupied --
-19.4012 -19.3691 -19.3652 -14.7866  -1.4894  -1.2696  -1.2462  -0.7899
 -0.7461  -0.7173  -0.7095  -0.5605  -0.5079  -0.4937  -0.4806  -0.4598

 Beta MOs
 -- Occupied --
-19.3859 -19.3622 -19.3596 -14.7875  -1.4771  -1.2555  -1.2168  -0.7697
 -0.7432  -0.6957  -0.6853  -0.4790  -0.4758  -0.4731  -0.4588

                    Cartesian Multipole Moments
 -----------------------------------------------------------------
    Charge (ESU x 10^10)
                -0.0000
    Dipole Moment (Debye)
         X       0.0087      Y      -0.3044      Z      -0.0000
       Tot       0.3045
    Quadrupole Moments (Debye-Ang)
        XX     -23.0444     XY       0.0505     YY     -22.2568
        XZ      -0.0000     YZ       0.0000     ZZ     -19.9839

 Total job time:  13.31s(wall), 65.56s(cpu)
        *  Thank you very much for using Q-Chem.  Have a nice day.  *
