 Q-Chem 5.3 (devel), Q-Chem, Inc., Pleasanton, CA (2020)
 Q-Chem 5.3.0 for Intel X86 EM64T Linux

User input:
--------------------------------------------------------------
$rem
   JOBTYPE  sp
   EXCHANGE   omegaB97X-D
   BASIS   6-311+G(2df,2pd)
   UNRESTRICTED   True
   max_scf_cycles   250
   geom_opt_max_cycles   1500
   basis2 6-31G*
   scf_algorithm rca_diis
   SYM_IGNORE  TRUE
   print_input   true
   geom_opt_dmax   80
   pop_mulliken false
   XC_GRID 000075000302
$end

$molecule
0 2
N       -0.0514778900     -0.0510742917     0.0000000000
O       -0.0252759156     -1.2444817299     -0.0000000000
O       -0.9889008554     0.6050287024     -0.0000000000
O       1.0656549429     0.6865992413     -0.0000000000
$end
--------------------------------------------------------------

             Standard Nuclear Orientation (Angstroms)
    I     Atom           X                Y                Z
 ----------------------------------------------------------------
    1      N      -0.0514778900    -0.0510742917     0.0000000000
    2      O      -0.0252759156    -1.2444817299     0.0000000000
    3      O      -0.9889008554     0.6050287024     0.0000000000
    4      O       1.0656549429     0.6865992413     0.0000000000
 ----------------------------------------------------------------

   10    -280.1049071958      2.08E-05 Convergence criterion met
   11    -280.2157704961      3.17E-06 Convergence criterion met
 Total energy in the final basis set = -280.21577050

                    Orbital Energies (a.u.)
 --------------------------------------------------------------

 Alpha MOs
 -- Occupied --
-19.4079 -19.3697 -19.3501 -14.7808  -1.4868  -1.2733  -1.2264  -0.7905
 -0.7425  -0.7210  -0.6971  -0.5651  -0.5029  -0.4980  -0.4758  -0.4549

 Beta MOs
 -- Occupied --
-19.3895 -19.3639 -19.3475 -14.7817  -1.4781  -1.2650  -1.1837  -0.7695
 -0.7404  -0.7015  -0.6811  -0.4754  -0.4749  -0.4713  -0.4595

                    Cartesian Multipole Moments
 -----------------------------------------------------------------
    Charge (ESU x 10^10)
                -0.0000
    Dipole Moment (Debye)
         X       0.1758      Y       0.3673      Z       0.0000
       Tot       0.4072
    Quadrupole Moments (Debye-Ang)
        XX     -22.1258     XY       0.1009     YY     -23.1002
        XZ       0.0000     YZ       0.0000     ZZ     -20.0227

 Total job time:  16.07s(wall), 70.74s(cpu)
        *  Thank you very much for using Q-Chem.  Have a nice day.  *
