 Q-Chem 5.3 (devel), Q-Chem, Inc., Pleasanton, CA (2020)
 Q-Chem 5.3.0 for Intel X86 EM64T Linux

User input:
--------------------------------------------------------------
$rem
   JOBTYPE  sp
   EXCHANGE   omegaB97X-D
   BASIS   6-311+G(2df,2pd)
   UNRESTRICTED   True
   max_scf_cycles   250
   geom_opt_max_cycles   1500
   basis2 6-31G*
   scf_algorithm rca_diis
   SYM_IGNORE  TRUE
   print_input   true
   geom_opt_dmax   80
   pop_mulliken false
   XC_GRID 000075000302
$end

$molecule
0 2
N       -0.0002461962     -0.0514068086     0.0000000000
O       0.0001839201     -1.2451142705     0.0000000000
O       -1.0263996066     0.6463984638     0.0000000000
O       1.0264621645     0.6461945373     0.0000000000
$end
--------------------------------------------------------------

             Standard Nuclear Orientation (Angstroms)
    I     Atom           X                Y                Z
 ----------------------------------------------------------------
    1      N      -0.0002461962    -0.0514068086     0.0000000000
    2      O       0.0001839201    -1.2451142705     0.0000000000
    3      O      -1.0263996066     0.6463984638     0.0000000000
    4      O       1.0264621645     0.6461945373     0.0000000000
 ----------------------------------------------------------------

    9    -280.1169000263      3.45E-05 Convergence criterion met
   11    -280.2256606395      1.89E-06 Convergence criterion met
 Total energy in the final basis set = -280.22566064

                    Orbital Energies (a.u.)
 --------------------------------------------------------------

 Alpha MOs
 -- Occupied --
-19.3905 -19.3903 -19.3615 -14.7868  -1.4755  -1.2655  -1.2383  -0.7918
 -0.7381  -0.7162  -0.7066  -0.5518  -0.5153  -0.4905  -0.4833  -0.4617

 Beta MOs
 -- Occupied --
-19.3781 -19.3780 -19.3584 -14.7877  -1.4642  -1.2506  -1.2083  -0.7719
 -0.7355  -0.6944  -0.6846  -0.4754  -0.4724  -0.4675  -0.4672

                    Cartesian Multipole Moments
 -----------------------------------------------------------------
    Charge (ESU x 10^10)
                 0.0000
    Dipole Moment (Debye)
         X       0.0017      Y       0.1433      Z      -0.0000
       Tot       0.1433
    Quadrupole Moments (Debye-Ang)
        XX     -22.2457     XY       0.0013     YY     -23.0451
        XZ       0.0000     YZ      -0.0000     ZZ     -20.0537

 Total job time:  14.97s(wall), 69.70s(cpu)
        *  Thank you very much for using Q-Chem.  Have a nice day.  *
