 Q-Chem 5.3 (devel), Q-Chem, Inc., Pleasanton, CA (2020)
 Q-Chem 5.3.0 for Intel X86 EM64T Linux

User input:
--------------------------------------------------------------
$rem
   JOBTYPE  sp
   EXCHANGE   omegaB97X-D
   BASIS   6-311+G(2df,2pd)
   UNRESTRICTED   True
   max_scf_cycles   250
   geom_opt_max_cycles   1500
   basis2 6-31G*
   scf_algorithm rca_diis
   SYM_IGNORE  TRUE
   print_input   true
   geom_opt_dmax   80
   pop_mulliken false
   XC_GRID 000075000302
$end

$molecule
0 2
N       0.0253724743     -0.0512005019     -0.0000000000
O       0.0129167506     -1.2448493032     0.0000000000
O       -1.0456292340     0.6666012405     0.0000000000
O       1.0073402909     0.6255204866     0.0000000000
$end
--------------------------------------------------------------

             Standard Nuclear Orientation (Angstroms)
    I     Atom           X                Y                Z
 ----------------------------------------------------------------
    1      N       0.0253724743    -0.0512005019     0.0000000000
    2      O       0.0129167506    -1.2448493032     0.0000000000
    3      O      -1.0456292340     0.6666012405     0.0000000000
    4      O       1.0073402909     0.6255204866     0.0000000000
 ----------------------------------------------------------------

   10    -280.1141714187      3.92E-05 Convergence criterion met
   11    -280.2234611894      6.89E-06 Convergence criterion met
 Total energy in the final basis set = -280.22346119

                    Orbital Energies (a.u.)
 --------------------------------------------------------------

 Alpha MOs
 -- Occupied --
-19.4023 -19.3777 -19.3580 -14.7850  -1.4780  -1.2676  -1.2357  -0.7916
 -0.7390  -0.7181  -0.7028  -0.5573  -0.5107  -0.4944  -0.4797  -0.4593

 Beta MOs
 -- Occupied --
-19.3865 -19.3690 -19.3551 -14.7859  -1.4673  -1.2555  -1.2012  -0.7712
 -0.7365  -0.6968  -0.6828  -0.4752  -0.4725  -0.4713  -0.4636

                    Cartesian Multipole Moments
 -----------------------------------------------------------------
    Charge (ESU x 10^10)
                -0.0000
    Dipole Moment (Debye)
         X      -0.1532      Y       0.2111      Z      -0.0000
       Tot       0.2609
    Quadrupole Moments (Debye-Ang)
        XX     -22.2100     XY      -0.0878     YY     -23.0621
        XZ       0.0000     YZ       0.0000     ZZ     -20.0440

 Total job time:  14.80s(wall), 71.49s(cpu)
        *  Thank you very much for using Q-Chem.  Have a nice day.  *
