 Q-Chem 5.3 (devel), Q-Chem, Inc., Pleasanton, CA (2020)
 Q-Chem 5.3.0 for Intel X86 EM64T Linux

User input:
--------------------------------------------------------------
$rem
   JOBTYPE  sp
   EXCHANGE   omegaB97X-D
   BASIS   6-311+G(2df,2pd)
   UNRESTRICTED   True
   max_scf_cycles   250
   geom_opt_max_cycles   1500
   basis2 6-31G*
   scf_algorithm rca_diis
   SYM_IGNORE  TRUE
   print_input   true
   geom_opt_dmax   80
   pop_mulliken false
   XC_GRID 000075000302
$end

$molecule
0 2
N       0.0517623060     -0.0503061234     -0.0000000000
O       -0.0413122777     -1.2406669372     0.0000000000
O       -1.0326163465     0.6230681352     0.0000000000
O       1.0221666000     0.6639768474     0.0000000000
$end
--------------------------------------------------------------

             Standard Nuclear Orientation (Angstroms)
    I     Atom           X                Y                Z
 ----------------------------------------------------------------
    1      N       0.0517623060    -0.0503061234     0.0000000000
    2      O      -0.0413122777    -1.2406669372     0.0000000000
    3      O      -1.0326163465     0.6230681352     0.0000000000
    4      O       1.0221666000     0.6639768474     0.0000000000
 ----------------------------------------------------------------

   10    -280.1153981373      2.38E-05 Convergence criterion met
   10    -280.2245069345      6.63E-06 Convergence criterion met
 Total energy in the final basis set = -280.22450693

                    Orbital Energies (a.u.)
 --------------------------------------------------------------

 Alpha MOs
 -- Occupied --
-19.4058 -19.3709 -19.3611 -14.7854  -1.4757  -1.2699  -1.2346  -0.7914
 -0.7382  -0.7171  -0.7029  -0.5639  -0.5035  -0.4954  -0.4790  -0.4599

 Beta MOs
 -- Occupied --
-19.3888 -19.3639 -19.3576 -14.7862  -1.4648  -1.2583  -1.1994  -0.7711
 -0.7357  -0.6965  -0.6824  -0.4756  -0.4737  -0.4724  -0.4633

                    Cartesian Multipole Moments
 -----------------------------------------------------------------
    Charge (ESU x 10^10)
                -0.0000
    Dipole Moment (Debye)
         X      -0.2544      Y       0.1731      Z      -0.0000
       Tot       0.3077
    Quadrupole Moments (Debye-Ang)
        XX     -22.3144     XY      -0.2420     YY     -22.9756
        XZ      -0.0000     YZ      -0.0000     ZZ     -20.0444

 Total job time:  13.70s(wall), 67.19s(cpu)
        *  Thank you very much for using Q-Chem.  Have a nice day.  *
