 Q-Chem 5.3 (devel), Q-Chem, Inc., Pleasanton, CA (2020)
 Q-Chem 5.3.0 for Intel X86 EM64T Linux

User input:
--------------------------------------------------------------
$rem
   JOBTYPE  sp
   EXCHANGE   omegaB97X-D
   BASIS   6-311+G(2df,2pd)
   UNRESTRICTED   True
   max_scf_cycles   250
   geom_opt_max_cycles   1500
   basis2 6-31G*
   scf_algorithm rca_diis
   SYM_IGNORE  TRUE
   print_input   true
   geom_opt_dmax   80
   pop_mulliken false
   XC_GRID 000075000302
$end

$molecule
0 2
N       -0.0004923975     -0.0359482105     0.0000000000
O       0.0001280350     -1.2092242916     -0.0000000000
O       -0.9785321102     0.6205848570     -0.0000000000
O       0.9788967546     0.6206595672     -0.0000000000
$end
--------------------------------------------------------------

             Standard Nuclear Orientation (Angstroms)
    I     Atom           X                Y                Z
 ----------------------------------------------------------------
    1      N      -0.0004923975    -0.0359482105     0.0000000000
    2      O       0.0001280350    -1.2092242916     0.0000000000
    3      O      -0.9785321102     0.6205848570     0.0000000000
    4      O       0.9788967546     0.6206595672     0.0000000000
 ----------------------------------------------------------------

    8    -280.1009508446      8.53E-05 Convergence criterion met
   10    -280.2135280375      9.40E-06 Convergence criterion met
 Total energy in the final basis set = -280.21352804

                    Orbital Energies (a.u.)
 --------------------------------------------------------------

 Alpha MOs
 -- Occupied --
-19.3809 -19.3806 -19.3528 -14.7845  -1.5246  -1.2880  -1.2733  -0.7813
 -0.7688  -0.7224  -0.7156  -0.5553  -0.5196  -0.4936  -0.4847  -0.4556

 Beta MOs
 -- Occupied --
-19.3692 -19.3690 -19.3480 -14.7854  -1.5125  -1.2728  -1.2470  -0.7658
 -0.7609  -0.6985  -0.6901  -0.4794  -0.4772  -0.4759  -0.4658

                    Cartesian Multipole Moments
 -----------------------------------------------------------------
    Charge (ESU x 10^10)
                 0.0000
    Dipole Moment (Debye)
         X       0.0008      Y       0.2526      Z       0.0000
       Tot       0.2526
    Quadrupole Moments (Debye-Ang)
        XX     -22.2160     XY       0.0011     YY     -22.9539
        XZ      -0.0000     YZ       0.0000     ZZ     -19.7638

 Total job time:  11.89s(wall), 57.00s(cpu)
        *  Thank you very much for using Q-Chem.  Have a nice day.  *
