 Q-Chem 5.3 (devel), Q-Chem, Inc., Pleasanton, CA (2020)
 Q-Chem 5.3.0 for Intel X86 EM64T Linux

User input:
--------------------------------------------------------------
$rem
   JOBTYPE  sp
   EXCHANGE   omegaB97X-D
   BASIS   6-311+G(2df,2pd)
   UNRESTRICTED   True
   max_scf_cycles   250
   geom_opt_max_cycles   1500
   basis2 6-31G*
   scf_algorithm rca_diis
   SYM_IGNORE  TRUE
   print_input   true
   geom_opt_dmax   80
   pop_mulliken false
   XC_GRID 000075000302
$end

$molecule
0 2
N       0.0005178031     -0.0995909912     -0.0000000000
O       0.0003220324     -1.3545923982     0.0000000000
O       -1.1671722792     0.7256285457     0.0000000000
O       1.1663327255     0.7246267657     0.0000000000
$end
--------------------------------------------------------------

             Standard Nuclear Orientation (Angstroms)
    I     Atom           X                Y                Z
 ----------------------------------------------------------------
    1      N       0.0005178031    -0.0995909912     0.0000000000
    2      O       0.0003220324    -1.3545923982     0.0000000000
    3      O      -1.1671722792     0.7256285457     0.0000000000
    4      O       1.1663327255     0.7246267657     0.0000000000
 ----------------------------------------------------------------

   11    -280.0581876620      3.19E-05 Convergence criterion met
   11    -280.1626486470      3.75E-06 Convergence criterion met
 Total energy in the final basis set = -280.16264865

                    Orbital Energies (a.u.)
 --------------------------------------------------------------

 Alpha MOs
 -- Occupied --
-19.4053 -19.4040 -19.3923 -14.7832  -1.3651  -1.2030  -1.1593  -0.8224
 -0.6851  -0.6848  -0.6667  -0.5357  -0.5073  -0.4805  -0.4795  -0.4715

 Beta MOs
 -- Occupied --
-19.3930 -19.3914 -19.3904 -14.7842  -1.3601  -1.1823  -1.1198  -0.8068
 -0.6717  -0.6702  -0.6666  -0.4734  -0.4725  -0.4563  -0.4340

                    Cartesian Multipole Moments
 -----------------------------------------------------------------
    Charge (ESU x 10^10)
                 0.0000
    Dipole Moment (Debye)
         X      -0.0196      Y      -0.3173      Z       0.0000
       Tot       0.3179
    Quadrupole Moments (Debye-Ang)
        XX     -22.1930     XY      -0.0100     YY     -22.9792
        XZ      -0.0000     YZ      -0.0000     ZZ     -20.8105

 Total job time:  14.31s(wall), 68.57s(cpu)
        *  Thank you very much for using Q-Chem.  Have a nice day.  *
