 Q-Chem 5.3 (devel), Q-Chem, Inc., Pleasanton, CA (2020)
 Q-Chem 5.3.0 for Intel X86 EM64T Linux

User input:
--------------------------------------------------------------
$rem
   JOBTYPE  sp
   EXCHANGE   omegaB97X-D
   BASIS   6-311+G(2df,2pd)
   UNRESTRICTED   True
   max_scf_cycles   250
   geom_opt_max_cycles   1500
   basis2 6-31G*
   scf_algorithm rca_diis
   SYM_IGNORE  TRUE
   print_input   true
   geom_opt_dmax   80
   pop_mulliken false
   XC_GRID 000075000302
$end

$molecule
0 2
N       0.0001310416     -0.0751617965     -0.0000000000
O       0.0002583431     -1.2995162707     0.0000000000
O       -1.0973216933     0.6856798936     0.0000000000
O       1.0969325903     0.6850700956     0.0000000000
$end
--------------------------------------------------------------

             Standard Nuclear Orientation (Angstroms)
    I     Atom           X                Y                Z
 ----------------------------------------------------------------
    1      N       0.0001310416    -0.0751617965     0.0000000000
    2      O       0.0002583431    -1.2995162707     0.0000000000
    3      O      -1.0973216933     0.6856798936     0.0000000000
    4      O       1.0969325903     0.6850700956     0.0000000000
 ----------------------------------------------------------------

   10    -280.1007683141      3.57E-05 Convergence criterion met
   10    -280.2065673550      8.37E-06 Convergence criterion met
 Total energy in the final basis set = -280.20656736

                    Orbital Energies (a.u.)
 --------------------------------------------------------------

 Alpha MOs
 -- Occupied --
-19.3999 -19.3996 -19.3763 -14.7862  -1.4132  -1.2336  -1.1940  -0.8073
 -0.7025  -0.6987  -0.6950  -0.5445  -0.5107  -0.4852  -0.4817  -0.4677

 Beta MOs
 -- Occupied --
-19.3867 -19.3865 -19.3754 -14.7872  -1.4045  -1.2168  -1.1589  -0.7891
 -0.6971  -0.6847  -0.6773  -0.4744  -0.4704  -0.4644  -0.4498

                    Cartesian Multipole Moments
 -----------------------------------------------------------------
    Charge (ESU x 10^10)
                -0.0000
    Dipole Moment (Debye)
         X      -0.0035      Y      -0.0693      Z      -0.0000
       Tot       0.0694
    Quadrupole Moments (Debye-Ang)
        XX     -22.2357     XY      -0.0017     YY     -23.0703
        XZ       0.0000     YZ      -0.0000     ZZ     -20.4529

 Total job time:  13.34s(wall), 63.78s(cpu)
        *  Thank you very much for using Q-Chem.  Have a nice day.  *
