 Q-Chem 5.3 (devel), Q-Chem, Inc., Pleasanton, CA (2020)
 Q-Chem 5.3.0 for Intel X86 EM64T Linux

User input:
--------------------------------------------------------------
$rem
   JOBTYPE  sp
   EXCHANGE   omegaB97X-D
   BASIS   6-311+G(2df,2pd)
   UNRESTRICTED   True
   max_scf_cycles   250
   geom_opt_max_cycles   1500
   basis2 6-31G*
   scf_algorithm rca_diis
   SYM_IGNORE  TRUE
   print_input   true
   geom_opt_dmax   80
   pop_mulliken false
   XC_GRID 000075000302
$end

$molecule
0 2
N       -0.0003344290     0.0861632035     0.0000000000
O       0.0001716254     -1.3745307558     -0.0000000000
O       -0.9932503729     0.6422493356     -0.0000000000
O       0.9934134582     0.6421901387     -0.0000000000
$end
--------------------------------------------------------------

             Standard Nuclear Orientation (Angstroms)
    I     Atom           X                Y                Z
 ----------------------------------------------------------------
    1      N      -0.0003344290     0.0861632035     0.0000000000
    2      O       0.0001716254    -1.3745307558     0.0000000000
    3      O      -0.9932503729     0.6422493356     0.0000000000
    4      O       0.9934134582     0.6421901387     0.0000000000
 ----------------------------------------------------------------

   12    -280.0804628611      7.71E-05 Convergence criterion met
   12    -280.1935444452      8.16E-06 Convergence criterion met
 Total energy in the final basis set = -280.19354445

                    Orbital Energies (a.u.)
 --------------------------------------------------------------

 Alpha MOs
 -- Occupied --
-19.4123 -19.3494 -19.3492 -14.7714  -1.4896  -1.2801  -1.1964  -0.7907
 -0.7403  -0.7183  -0.6860  -0.5676  -0.4986  -0.4984  -0.4718  -0.4461

 Beta MOs
 -- Occupied --
-19.3913 -19.3472 -19.3470 -14.7722  -1.4860  -1.2755  -1.1393  -0.7709
 -0.7397  -0.7066  -0.6771  -0.4757  -0.4718  -0.4695  -0.4480

                    Cartesian Multipole Moments
 -----------------------------------------------------------------
    Charge (ESU x 10^10)
                -0.0000
    Dipole Moment (Debye)
         X      -0.0044      Y      -0.3933      Z      -0.0000
       Tot       0.3933
    Quadrupole Moments (Debye-Ang)
        XX     -22.8810     XY      -0.0005     YY     -22.2141
        XZ      -0.0000     YZ      -0.0000     ZZ     -20.0668

 Total job time:  16.54s(wall), 79.11s(cpu)
        *  Thank you very much for using Q-Chem.  Have a nice day.  *
