 Q-Chem 5.3 (devel), Q-Chem, Inc., Pleasanton, CA (2020)
 Q-Chem 5.3.0 for Intel X86 EM64T Linux

User input:
--------------------------------------------------------------
$rem
   JOBTYPE  sp
   EXCHANGE   omegaB97X-D
   BASIS   6-311+G(2df,2pd)
   UNRESTRICTED   True
   max_scf_cycles   250
   geom_opt_max_cycles   1500
   basis2 6-31G*
   scf_algorithm rca_diis
   SYM_IGNORE  TRUE
   print_input   true
   geom_opt_dmax   80
   pop_mulliken false
   XC_GRID 000075000302
$end

$molecule
0 2
N       0.0036363415     -0.1215168468     0.0000000000
O       -0.0024474892     -1.2945935942     -0.0000000000
O       -0.9556441477     0.7051013028     -0.0000000000
O       0.9544555772     0.7070810602     -0.0000000000
$end
--------------------------------------------------------------

             Standard Nuclear Orientation (Angstroms)
    I     Atom           X                Y                Z
 ----------------------------------------------------------------
    1      N       0.0036363415    -0.1215168468     0.0000000000
    2      O      -0.0024474892    -1.2945935942     0.0000000000
    3      O      -0.9556441477     0.7051013028     0.0000000000
    4      O       0.9544555772     0.7070810602     0.0000000000
 ----------------------------------------------------------------

    7    -280.1104602108      8.36E-05 Convergence criterion met
    9    -280.2188817970      6.33E-06 Convergence criterion met
 Total energy in the final basis set = -280.21888180

                    Orbital Energies (a.u.)
 --------------------------------------------------------------

 Alpha MOs
 -- Occupied --
-19.3838 -19.3833 -19.3656 -14.7848  -1.4712  -1.2898  -1.1984  -0.7915
 -0.7341  -0.7087  -0.7049  -0.5679  -0.4912  -0.4891  -0.4760  -0.4537

 Beta MOs
 -- Occupied --
-19.3696 -19.3695 -19.3659 -14.7856  -1.4599  -1.2764  -1.1634  -0.7732
 -0.7318  -0.6902  -0.6850  -0.4848  -0.4792  -0.4740  -0.4550

                    Cartesian Multipole Moments
 -----------------------------------------------------------------
    Charge (ESU x 10^10)
                -0.0000
    Dipole Moment (Debye)
         X       0.0008      Y      -0.1945      Z      -0.0000
       Tot       0.1945
    Quadrupole Moments (Debye-Ang)
        XX     -22.0390     XY      -0.0019     YY     -23.1046
        XZ       0.0000     YZ      -0.0000     ZZ     -20.0537

 Total job time:  10.94s(wall), 53.80s(cpu)
        *  Thank you very much for using Q-Chem.  Have a nice day.  *
