 Q-Chem 5.3 (devel), Q-Chem, Inc., Pleasanton, CA (2020)
 Q-Chem 5.3.0 for Intel X86 EM64T Linux

User input:
--------------------------------------------------------------
$rem
   JOBTYPE  sp
   EXCHANGE   omegaB97X-D
   BASIS   6-311+G(2df,2pd)
   UNRESTRICTED   True
   max_scf_cycles   250
   geom_opt_max_cycles   1500
   basis2 6-31G*
   scf_algorithm rca_diis
   SYM_IGNORE  TRUE
   print_input   true
   geom_opt_dmax   80
   pop_mulliken false
   XC_GRID 000075000302
$end

$molecule
0 2
N       -0.0522925540     -0.0526139880     0.0000000000
O       0.0415399964     -1.2423405325     -0.0000000000
O       -1.0200778630     0.6660300862     -0.0000000000
O       1.0308307024     0.6249963562     -0.0000000000
$end
--------------------------------------------------------------

             Standard Nuclear Orientation (Angstroms)
    I     Atom           X                Y                Z
 ----------------------------------------------------------------
    1      N      -0.0522925540    -0.0526139880     0.0000000000
    2      O       0.0415399964    -1.2423405325     0.0000000000
    3      O      -1.0200778630     0.6660300862     0.0000000000
    4      O       1.0308307024     0.6249963562     0.0000000000
 ----------------------------------------------------------------

   10    -280.1153111383      2.49E-05 Convergence criterion met
   10    -280.2244049637      6.83E-06 Convergence criterion met
 Total energy in the final basis set = -280.22440496

                    Orbital Energies (a.u.)
 --------------------------------------------------------------

 Alpha MOs
 -- Occupied --
-19.4056 -19.3713 -19.3607 -14.7853  -1.4755  -1.2703  -1.2337  -0.7914
 -0.7380  -0.7170  -0.7027  -0.5643  -0.5029  -0.4952  -0.4790  -0.4598

 Beta MOs
 -- Occupied --
-19.3886 -19.3642 -19.3574 -14.7862  -1.4645  -1.2588  -1.1982  -0.7711
 -0.7355  -0.6964  -0.6823  -0.4755  -0.4741  -0.4724  -0.4633

                    Cartesian Multipole Moments
 -----------------------------------------------------------------
    Charge (ESU x 10^10)
                -0.0000
    Dipole Moment (Debye)
         X       0.2500      Y       0.1707      Z       0.0000
       Tot       0.3027
    Quadrupole Moments (Debye-Ang)
        XX     -22.2991     XY       0.2354     YY     -22.9893
        XZ       0.0000     YZ      -0.0000     ZZ     -20.0454

 Total job time:  14.14s(wall), 65.46s(cpu)
        *  Thank you very much for using Q-Chem.  Have a nice day.  *
