 Q-Chem 5.3 (devel), Q-Chem, Inc., Pleasanton, CA (2020)
 Q-Chem 5.3.0 for Intel X86 EM64T Linux

User input:
--------------------------------------------------------------
$rem
   JOBTYPE  sp
   EXCHANGE   omegaB97X-D
   BASIS   6-311+G(2df,2pd)
   UNRESTRICTED   True
   max_scf_cycles   250
   geom_opt_max_cycles   1500
   basis2 6-31G*
   scf_algorithm rca_diis
   SYM_IGNORE  TRUE
   print_input   true
   geom_opt_dmax   80
   pop_mulliken false
   XC_GRID 000075000302
$end

$molecule
0 2
N       -0.0007343518     -0.0207944778     0.0000000000
O       0.0000668944     -1.1736391502     -0.0000000000
O       -0.9302021947     0.5950727444     -0.0000000000
O       0.9308699340     0.5954328056     -0.0000000000
$end
--------------------------------------------------------------

             Standard Nuclear Orientation (Angstroms)
    I     Atom           X                Y                Z
 ----------------------------------------------------------------
    1      N      -0.0007343518    -0.0207944778     0.0000000000
    2      O       0.0000668944    -1.1736391502     0.0000000000
    3      O      -0.9302021947     0.5950727444     0.0000000000
    4      O       0.9308699340     0.5954328056     0.0000000000
 ----------------------------------------------------------------

    7    -280.0498467389      4.48E-05 Convergence criterion met
   10    -280.1688226426      1.08E-06 Convergence criterion met
 Total energy in the final basis set = -280.16882264

                    Orbital Energies (a.u.)
 --------------------------------------------------------------

 Alpha MOs
 -- Occupied --
-19.3690 -19.3687 -19.3435 -14.7792  -1.5794  -1.3133  -1.3110  -0.8035
 -0.7710  -0.7261  -0.7253  -0.5578  -0.5248  -0.4968  -0.4858  -0.4465

 Beta MOs
 -- Occupied --
-19.3579 -19.3578 -19.3370 -14.7800  -1.5670  -1.2950  -1.2902  -0.8003
 -0.7506  -0.7009  -0.6961  -0.4906  -0.4820  -0.4760  -0.4654

                    Cartesian Multipole Moments
 -----------------------------------------------------------------
    Charge (ESU x 10^10)
                 0.0000
    Dipole Moment (Debye)
         X      -0.0022      Y       0.3568      Z       0.0000
       Tot       0.3568
    Quadrupole Moments (Debye-Ang)
        XX     -22.1235     XY      -0.0003     YY     -22.8242
        XZ       0.0000     YZ       0.0000     ZZ     -19.4542

 Total job time:  13.99s(wall), 61.13s(cpu)
        *  Thank you very much for using Q-Chem.  Have a nice day.  *
