 Q-Chem 5.3 (devel), Q-Chem, Inc., Pleasanton, CA (2020)
 Q-Chem 5.3.0 for Intel X86 EM64T Linux

User input:
--------------------------------------------------------------
$rem
   JOBTYPE  sp
   EXCHANGE   omegaB97X-D
   BASIS   6-311+G(2df,2pd)
   UNRESTRICTED   True
   max_scf_cycles   250
   geom_opt_max_cycles   1500
   basis2 6-31G*
   scf_algorithm rca_diis
   SYM_IGNORE  TRUE
   print_input   true
   geom_opt_dmax   80
   pop_mulliken false
   XC_GRID 000075000302
$end

$molecule
0 2
N       0.1547139121     -0.0484785177     -0.0000000000
O       -0.1236633438     -1.2101568087     0.0000000000
O       -1.0447376531     0.5654959420     0.0000000000
O       1.0136873666     0.6892113064     0.0000000000
$end
--------------------------------------------------------------

             Standard Nuclear Orientation (Angstroms)
    I     Atom           X                Y                Z
 ----------------------------------------------------------------
    1      N       0.1547139121    -0.0484785177     0.0000000000
    2      O      -0.1236633438    -1.2101568087     0.0000000000
    3      O      -1.0447376531     0.5654959420     0.0000000000
    4      O       1.0136873666     0.6892113064     0.0000000000
 ----------------------------------------------------------------

    9    -280.0942859140      8.19E-05 Convergence criterion met
   11    -280.2056617335      3.33E-06 Convergence criterion met
 Total energy in the final basis set = -280.20566173

                    Orbital Energies (a.u.)
 --------------------------------------------------------------

 Alpha MOs
 -- Occupied --
-19.3855 -19.3667 -19.3618 -14.7818  -1.4857  -1.3077  -1.1932  -0.7829
 -0.7445  -0.7217  -0.6975  -0.5757  -0.4909  -0.4780  -0.4778  -0.4553

 Beta MOs
 -- Occupied --
-19.3655 -19.3654 -19.3566 -14.7825  -1.4787  -1.2991  -1.1469  -0.7667
 -0.7431  -0.7008  -0.6863  -0.4939  -0.4849  -0.4557  -0.4516

                    Cartesian Multipole Moments
 -----------------------------------------------------------------
    Charge (ESU x 10^10)
                -0.0000
    Dipole Moment (Debye)
         X       0.2790      Y       0.1986      Z       0.0000
       Tot       0.3425
    Quadrupole Moments (Debye-Ang)
        XX     -22.5403     XY      -0.2530     YY     -22.6141
        XZ       0.0000     YZ       0.0000     ZZ     -19.9960

 Total job time:  15.74s(wall), 72.66s(cpu)
        *  Thank you very much for using Q-Chem.  Have a nice day.  *
