 Q-Chem 5.3 (devel), Q-Chem, Inc., Pleasanton, CA (2020)
 Q-Chem 5.3.0 for Intel X86 EM64T Linux

User input:
--------------------------------------------------------------
$rem
   JOBTYPE  sp
   EXCHANGE   omegaB97X-D
   BASIS   6-311+G(2df,2pd)
   UNRESTRICTED   True
   max_scf_cycles   250
   geom_opt_max_cycles   1500
   basis2 6-31G*
   scf_algorithm rca_diis
   SYM_IGNORE  TRUE
   print_input   true
   geom_opt_dmax   80
   pop_mulliken false
   XC_GRID 000075000302
$end

$molecule
0 2
N       -0.0002984394     0.0317655573     0.0000000000
O       0.0001754513     -1.3221338037     -0.0000000000
O       -1.0085388668     0.6432778348     -0.0000000000
O       1.0086621367     0.6431623336     -0.0000000000
$end
--------------------------------------------------------------

             Standard Nuclear Orientation (Angstroms)
    I     Atom           X                Y                Z
 ----------------------------------------------------------------
    1      N      -0.0002984394     0.0317655573     0.0000000000
    2      O       0.0001754513    -1.3221338037     0.0000000000
    3      O      -1.0085388668     0.6432778348     0.0000000000
    4      O       1.0086621367     0.6431623336     0.0000000000
 ----------------------------------------------------------------

   10    -280.0998097690      8.12E-05 Convergence criterion met
   12    -280.2097326356      2.57E-06 Convergence criterion met
 Total energy in the final basis set = -280.20973264

                    Orbital Energies (a.u.)
 --------------------------------------------------------------

 Alpha MOs
 -- Occupied --
-19.4036 -19.3682 -19.3682 -14.7829  -1.4779  -1.2616  -1.2229  -0.7939
 -0.7360  -0.7197  -0.6986  -0.5475  -0.5196  -0.4937  -0.4785  -0.4582

 Beta MOs
 -- Occupied --
-19.3880 -19.3624 -19.3624 -14.7838  -1.4697  -1.2487  -1.1863  -0.7744
 -0.7343  -0.6985  -0.6816  -0.4779  -0.4738  -0.4713  -0.4446

                    Cartesian Multipole Moments
 -----------------------------------------------------------------
    Charge (ESU x 10^10)
                -0.0000
    Dipole Moment (Debye)
         X      -0.0018      Y      -0.1697      Z       0.0000
       Tot       0.1697
    Quadrupole Moments (Debye-Ang)
        XX     -22.8161     XY       0.0006     YY     -22.4617
        XZ       0.0000     YZ       0.0000     ZZ     -20.1108

 Total job time:  17.44s(wall), 76.99s(cpu)
        *  Thank you very much for using Q-Chem.  Have a nice day.  *
