 Q-Chem 5.3 (devel), Q-Chem, Inc., Pleasanton, CA (2020)
 Q-Chem 5.3.0 for Intel X86 EM64T Linux

User input:
--------------------------------------------------------------
$rem
   JOBTYPE  sp
   EXCHANGE   omegaB97X-D
   BASIS   6-311+G(2df,2pd)
   UNRESTRICTED   True
   max_scf_cycles   250
   geom_opt_max_cycles   1500
   basis2 6-31G*
   scf_algorithm rca_diis
   SYM_IGNORE  TRUE
   print_input   true
   geom_opt_dmax   80
   pop_mulliken false
   XC_GRID 000075000302
$end

$molecule
0 2
N       -0.0092364020     0.1328094087     -0.0000000000
O       0.0096400835     -1.1122925898     0.0000000000
O       -1.1302360575     0.4932646134     0.0000000000
O       1.1298326577     0.4822904898     0.0000000000
$end
--------------------------------------------------------------

             Standard Nuclear Orientation (Angstroms)
    I     Atom           X                Y                Z
 ----------------------------------------------------------------
    1      N      -0.0092364020     0.1328094087     0.0000000000
    2      O       0.0096400835    -1.1122925898     0.0000000000
    3      O      -1.1302360575     0.4932646134     0.0000000000
    4      O       1.1298326577     0.4822904898     0.0000000000
 ----------------------------------------------------------------

    9    -280.0910454506      8.11E-05 Convergence criterion met
   10    -280.2015934177      4.54E-06 Convergence criterion met
 Total energy in the final basis set = -280.20159342

                    Orbital Energies (a.u.)
 --------------------------------------------------------------

 Alpha MOs
 -- Occupied --
-19.3920 -19.3639 -19.3607 -14.7844  -1.5002  -1.2975  -1.2217  -0.7856
 -0.7515  -0.7186  -0.7040  -0.5798  -0.4872  -0.4853  -0.4839  -0.4501

 Beta MOs
 -- Occupied --
-19.3735 -19.3585 -19.3570 -14.7852  -1.4879  -1.2872  -1.1861  -0.7668
 -0.7485  -0.6952  -0.6850  -0.4994  -0.4796  -0.4653  -0.4495

                    Cartesian Multipole Moments
 -----------------------------------------------------------------
    Charge (ESU x 10^10)
                -0.0000
    Dipole Moment (Debye)
         X      -0.0237      Y      -0.0943      Z      -0.0000
       Tot       0.0973
    Quadrupole Moments (Debye-Ang)
        XX     -23.0679     XY       0.0637     YY     -22.1770
        XZ      -0.0000     YZ      -0.0000     ZZ     -19.9105

 Total job time:  14.32s(wall), 65.85s(cpu)
        *  Thank you very much for using Q-Chem.  Have a nice day.  *
