 Q-Chem 5.3 (devel), Q-Chem, Inc., Pleasanton, CA (2020)
 Q-Chem 5.3.0 for Intel X86 EM64T Linux

User input:
--------------------------------------------------------------
$rem
   JOBTYPE  sp
   EXCHANGE   omegaB97X-D
   BASIS   6-311+G(2df,2pd)
   UNRESTRICTED   True
   max_scf_cycles   250
   geom_opt_max_cycles   1500
   basis2 6-31G*
   scf_algorithm rca_diis
   SYM_IGNORE  TRUE
   print_input   true
   geom_opt_dmax   80
   pop_mulliken false
   XC_GRID 000075000302
$end

$molecule
0 2
N       0.0028075298     -0.0561070965     0.2292083368
O       -0.0045625243     -1.2078919194     -0.0842802490
O       -0.9883332432     0.6267939909     -0.0728000949
O       0.9900885196     0.6332769470     -0.0721279929
$end
--------------------------------------------------------------

             Standard Nuclear Orientation (Angstroms)
    I     Atom           X                Y                Z
 ----------------------------------------------------------------
    1      N       0.0028075298    -0.0561070965     0.2292083368
    2      O      -0.0045625243    -1.2078919194    -0.0842802490
    3      O      -0.9883332432     0.6267939909    -0.0728000949
    4      O       0.9900885196     0.6332769470    -0.0721279929
 ----------------------------------------------------------------

   10    -280.0670092462      4.38E-05 Convergence criterion met
   12    -280.1760773400      8.78E-06 Convergence criterion met
 Total energy in the final basis set = -280.17607734

                    Orbital Energies (a.u.)
 --------------------------------------------------------------

 Alpha MOs
 -- Occupied --
-19.3849 -19.3836 -19.3531 -14.7801  -1.4852  -1.2546  -1.2267  -0.7966
 -0.7368  -0.7114  -0.7007  -0.5560  -0.5130  -0.4797  -0.4675  -0.4468

 Beta MOs
 -- Occupied --
-19.3714 -19.3705 -19.3517 -14.7810  -1.4735  -1.2412  -1.1944  -0.7806
 -0.7285  -0.6895  -0.6810  -0.4841  -0.4774  -0.4570  -0.4427

                    Cartesian Multipole Moments
 -----------------------------------------------------------------
    Charge (ESU x 10^10)
                 0.0000
    Dipole Moment (Debye)
         X      -0.0126      Y       0.1261      Z       0.5701
       Tot       0.5840
    Quadrupole Moments (Debye-Ang)
        XX     -22.2648     XY      -0.0116     YY     -23.2468
        XZ       0.0032     YZ      -0.2023     ZZ     -19.6252

 Total job time:  14.48s(wall), 71.94s(cpu)
        *  Thank you very much for using Q-Chem.  Have a nice day.  *
