 Q-Chem 5.3 (devel), Q-Chem, Inc., Pleasanton, CA (2020)
 Q-Chem 5.3.0 for Intel X86 EM64T Linux

User input:
--------------------------------------------------------------
$rem
   JOBTYPE  sp
   EXCHANGE   omegaB97X-D
   BASIS   6-311+G(2df,2pd)
   UNRESTRICTED   True
   max_scf_cycles   250
   geom_opt_max_cycles   1500
   basis2 6-31G*
   scf_algorithm rca_diis
   SYM_IGNORE  TRUE
   print_input   true
   geom_opt_dmax   80
   pop_mulliken false
   XC_GRID 000075000302
$end

$molecule
0 2
N       -0.0006139069     -0.0283331076     0.0000000000
O       0.0000981354     -1.1913934876     -0.0000000000
O       -0.9544246071     0.6077909933     -0.0000000000
O       0.9549406604     0.6080075240     -0.0000000000
$end
--------------------------------------------------------------

             Standard Nuclear Orientation (Angstroms)
    I     Atom           X                Y                Z
 ----------------------------------------------------------------
    1      N      -0.0006139069    -0.0283331076     0.0000000000
    2      O       0.0000981354    -1.1913934876     0.0000000000
    3      O      -0.9544246071     0.6077909933     0.0000000000
    4      O       0.9549406604     0.6080075240     0.0000000000
 ----------------------------------------------------------------

    7    -280.0807739197      8.06E-05 Convergence criterion met
   10    -280.1961422886      1.59E-06 Convergence criterion met
 Total energy in the final basis set = -280.19614229

                    Orbital Energies (a.u.)
 --------------------------------------------------------------

 Alpha MOs
 -- Occupied --
-19.3752 -19.3749 -19.3484 -14.7822  -1.5513  -1.2995  -1.2926  -0.7856
 -0.7761  -0.7245  -0.7204  -0.5566  -0.5221  -0.4952  -0.4854  -0.4514

 Beta MOs
 -- Occupied --
-19.3638 -19.3636 -19.3427 -14.7831  -1.5390  -1.2839  -1.2680  -0.7825
 -0.7557  -0.6999  -0.6931  -0.4852  -0.4796  -0.4760  -0.4655

                    Cartesian Multipole Moments
 -----------------------------------------------------------------
    Charge (ESU x 10^10)
                 0.0000
    Dipole Moment (Debye)
         X      -0.0004      Y       0.3032      Z       0.0000
       Tot       0.3032
    Quadrupole Moments (Debye-Ang)
        XX     -22.1791     XY       0.0006     YY     -22.8924
        XZ      -0.0000     YZ       0.0000     ZZ     -19.6114

 Total job time:  12.10s(wall), 57.65s(cpu)
        *  Thank you very much for using Q-Chem.  Have a nice day.  *
