 Q-Chem 5.3 (devel), Q-Chem, Inc., Pleasanton, CA (2020)
 Q-Chem 5.3.0 for Intel X86 EM64T Linux

User input:
--------------------------------------------------------------
$rem
   JOBTYPE  sp
   EXCHANGE   omegaB97X-D
   BASIS   6-311+G(2df,2pd)
   UNRESTRICTED   True
   max_scf_cycles   250
   geom_opt_max_cycles   1500
   basis2 6-31G*
   scf_algorithm rca_diis
   SYM_IGNORE  TRUE
   print_input   true
   geom_opt_dmax   80
   pop_mulliken false
   XC_GRID 000075000302
$end

$molecule
0 2
N       -0.0125078835     0.2072490552     -0.0000000000
O       0.0145820676     -1.0583211390     0.0000000000
O       -1.1425316047     0.4320251751     0.0000000000
O       1.1404577024     0.4151188306     0.0000000000
$end
--------------------------------------------------------------

             Standard Nuclear Orientation (Angstroms)
    I     Atom           X                Y                Z
 ----------------------------------------------------------------
    1      N      -0.0125078835     0.2072490552     0.0000000000
    2      O       0.0145820676    -1.0583211390     0.0000000000
    3      O      -1.1425316047     0.4320251751     0.0000000000
    4      O       1.1404577024     0.4151188306     0.0000000000
 ----------------------------------------------------------------

    9    -280.0422357999      4.00E-05 Convergence criterion met
    9    -280.1545465854      5.16E-06 Convergence criterion met
 Total energy in the final basis set = -280.15454659

                    Orbital Energies (a.u.)
 --------------------------------------------------------------

 Alpha MOs
 -- Occupied --
-19.3651 -19.3646 -19.3621 -14.7829  -1.5145  -1.3280  -1.1900  -0.7812
 -0.7592  -0.7181  -0.7006  -0.5954  -0.4929  -0.4698  -0.4615  -0.4318

 Beta MOs
 -- Occupied --
-19.3600 -19.3592 -19.3449 -14.7836  -1.5033  -1.3192  -1.1510  -0.7667
 -0.7567  -0.6900  -0.6878  -0.5215  -0.4892  -0.4464  -0.4313

                    Cartesian Multipole Moments
 -----------------------------------------------------------------
    Charge (ESU x 10^10)
                -0.0000
    Dipole Moment (Debye)
         X      -0.0491      Y       0.4002      Z      -0.0000
       Tot       0.4032
    Quadrupole Moments (Debye-Ang)
        XX     -22.9300     XY       0.0739     YY     -22.1749
        XZ       0.0000     YZ       0.0000     ZZ     -19.8426

 Total job time:  11.41s(wall), 54.22s(cpu)
        *  Thank you very much for using Q-Chem.  Have a nice day.  *
