 Q-Chem 5.3 (devel), Q-Chem, Inc., Pleasanton, CA (2020)
 Q-Chem 5.3.0 for Intel X86 EM64T Linux

User input:
--------------------------------------------------------------
$rem
   JOBTYPE  sp
   EXCHANGE   omegaB97X-D
   BASIS   6-311+G(2df,2pd)
   UNRESTRICTED   True
   max_scf_cycles   250
   geom_opt_max_cycles   1500
   basis2 6-31G*
   scf_algorithm rca_diis
   SYM_IGNORE  TRUE
   print_input   true
   geom_opt_dmax   80
   pop_mulliken false
   XC_GRID 000075000302
$end

$molecule
0 2
N       0.0008860093     -0.0547559134     0.1848067434
O       -0.0015749764     -1.2213809729     -0.0680125672
O       -1.0016098050     0.6349685608     -0.0585146735
O       1.0022990539     0.6372402475     -0.0582795028
$end
--------------------------------------------------------------

             Standard Nuclear Orientation (Angstroms)
    I     Atom           X                Y                Z
 ----------------------------------------------------------------
    1      N       0.0008860093    -0.0547559134     0.1848067434
    2      O      -0.0015749764    -1.2213809729    -0.0680125672
    3      O      -1.0016098050     0.6349685608    -0.0585146735
    4      O       1.0022990539     0.6372402475    -0.0582795028
 ----------------------------------------------------------------

    9    -280.0853561384      5.62E-05 Convergence criterion met
   12    -280.1943302277      7.43E-06 Convergence criterion met
 Total energy in the final basis set = -280.19433023

                    Orbital Energies (a.u.)
 --------------------------------------------------------------

 Alpha MOs
 -- Occupied --
-19.3867 -19.3863 -19.3559 -14.7824  -1.4816  -1.2585  -1.2307  -0.7948
 -0.7372  -0.7131  -0.7028  -0.5546  -0.5139  -0.4834  -0.4732  -0.4522

 Beta MOs
 -- Occupied --
-19.3738 -19.3734 -19.3539 -14.7833  -1.4700  -1.2445  -1.1993  -0.7777
 -0.7308  -0.6913  -0.6822  -0.4817  -0.4768  -0.4605  -0.4495

                    Cartesian Multipole Moments
 -----------------------------------------------------------------
    Charge (ESU x 10^10)
                 0.0000
    Dipole Moment (Debye)
         X      -0.0047      Y       0.1361      Z       0.4576
       Tot       0.4775
    Quadrupole Moments (Debye-Ang)
        XX     -22.2557     XY      -0.0046     YY     -23.1762
        XZ       0.0007     YZ      -0.1572     ZZ     -19.7741

 Total job time:  16.64s(wall), 73.54s(cpu)
        *  Thank you very much for using Q-Chem.  Have a nice day.  *
