 Q-Chem 5.3 (devel), Q-Chem, Inc., Pleasanton, CA (2020)
 Q-Chem 5.3.0 for Intel X86 EM64T Linux

User input:
--------------------------------------------------------------
$rem
   JOBTYPE  sp
   EXCHANGE   omegaB97X-D
   BASIS   6-311+G(2df,2pd)
   UNRESTRICTED   True
   max_scf_cycles   250
   geom_opt_max_cycles   1500
   basis2 6-31G*
   scf_algorithm rca_diis
   SYM_IGNORE  TRUE
   print_input   true
   geom_opt_dmax   80
   pop_mulliken false
   XC_GRID 000075000302
$end

$molecule
0 2
N       -0.0002808357     0.0042440517     0.0000000000
O       0.0001779477     -1.2962580098     -0.0000000000
O       -1.0151812035     0.6441152113     -0.0000000000
O       1.0152843732     0.6439706687     -0.0000000000
$end
--------------------------------------------------------------

             Standard Nuclear Orientation (Angstroms)
    I     Atom           X                Y                Z
 ----------------------------------------------------------------
    1      N      -0.0002808357     0.0042440517     0.0000000000
    2      O       0.0001779477    -1.2962580098     0.0000000000
    3      O      -1.0151812035     0.6441152113     0.0000000000
    4      O       1.0152843732     0.6439706687     0.0000000000
 ----------------------------------------------------------------

    9    -280.1075721121      9.77E-05 Convergence criterion met
   11    -280.2165091396      3.53E-06 Convergence criterion met
 Total energy in the final basis set = -280.21650914

                    Orbital Energies (a.u.)
 --------------------------------------------------------------

 Alpha MOs
 -- Occupied --
-19.3842 -19.3840 -19.3816 -14.7877  -1.4775  -1.2589  -1.2303  -0.7939
 -0.7371  -0.7179  -0.7086  -0.5350  -0.5274  -0.4887  -0.4830  -0.4666

 Beta MOs
 -- Occupied --
-19.3754 -19.3753 -19.3712 -14.7887  -1.4667  -1.2389  -1.2061  -0.7752
 -0.7348  -0.6921  -0.6886  -0.4769  -0.4758  -0.4690  -0.4489

                    Cartesian Multipole Moments
 -----------------------------------------------------------------
    Charge (ESU x 10^10)
                -0.0000
    Dipole Moment (Debye)
         X       0.0002      Y       0.2112      Z      -0.0000
       Tot       0.2112
    Quadrupole Moments (Debye-Ang)
        XX     -22.5346     XY       0.0014     YY     -22.8165
        XZ       0.0000     YZ       0.0000     ZZ     -20.1144

 Total job time:  16.96s(wall), 72.30s(cpu)
        *  Thank you very much for using Q-Chem.  Have a nice day.  *
