 Q-Chem 5.3 (devel), Q-Chem, Inc., Pleasanton, CA (2020)
 Q-Chem 5.3.0 for Intel X86 EM64T Linux

User input:
--------------------------------------------------------------
$rem
   JOBTYPE  sp
   EXCHANGE   omegaB97X-D
   BASIS   6-311+G(2df,2pd)
   UNRESTRICTED   True
   max_scf_cycles   250
   geom_opt_max_cycles   1500
   basis2 6-31G*
   scf_algorithm rca_diis
   SYM_IGNORE  TRUE
   print_input   true
   geom_opt_dmax   80
   pop_mulliken false
   XC_GRID 000075000302
$end

$molecule
0 2
N       -0.1555469558     -0.0553295344     0.0000000000
O       0.1227834676     -1.2152513781     -0.0000000000
O       -1.0071386846     0.6941259266     -0.0000000000
O       1.0399024546     0.5725269079     -0.0000000000
$end
--------------------------------------------------------------

             Standard Nuclear Orientation (Angstroms)
    I     Atom           X                Y                Z
 ----------------------------------------------------------------
    1      N      -0.1555469558    -0.0553295344     0.0000000000
    2      O       0.1227834676    -1.2152513781     0.0000000000
    3      O      -1.0071386846     0.6941259266     0.0000000000
    4      O       1.0399024546     0.5725269079     0.0000000000
 ----------------------------------------------------------------

    9    -280.0933876943      6.31E-05 Convergence criterion met
   10    -280.2047214397      9.63E-06 Convergence criterion met
 Total energy in the final basis set = -280.20472144

                    Orbital Energies (a.u.)
 --------------------------------------------------------------

 Alpha MOs
 -- Occupied --
-19.3857 -19.3670 -19.3613 -14.7818  -1.4848  -1.3071  -1.1927  -0.7829
 -0.7439  -0.7217  -0.6970  -0.5766  -0.4902  -0.4786  -0.4765  -0.4554

 Beta MOs
 -- Occupied --
-19.3655 -19.3654 -19.3566 -14.7825  -1.4778  -1.2991  -1.1456  -0.7668
 -0.7425  -0.7006  -0.6861  -0.4948  -0.4845  -0.4560  -0.4504

                    Cartesian Multipole Moments
 -----------------------------------------------------------------
    Charge (ESU x 10^10)
                -0.0000
    Dipole Moment (Debye)
         X      -0.2685      Y       0.1836      Z      -0.0000
       Tot       0.3252
    Quadrupole Moments (Debye-Ang)
        XX     -22.5123     XY       0.2334     YY     -22.6530
        XZ       0.0000     YZ      -0.0000     ZZ     -20.0027

 Total job time:  13.39s(wall), 61.99s(cpu)
        *  Thank you very much for using Q-Chem.  Have a nice day.  *
