 Q-Chem 5.3 (devel), Q-Chem, Inc., Pleasanton, CA (2020)
 Q-Chem 5.3.0 for Intel X86 EM64T Linux

User input:
--------------------------------------------------------------
$rem
   JOBTYPE  sp
   EXCHANGE   omegaB97X-D
   BASIS   6-311+G(2df,2pd)
   UNRESTRICTED   True
   max_scf_cycles   250
   geom_opt_max_cycles   1500
   basis2 6-31G*
   scf_algorithm rca_diis
   SYM_IGNORE  TRUE
   print_input   true
   geom_opt_dmax   80
   pop_mulliken false
   XC_GRID 000075000302
$end

$molecule
0 2
N       -0.0002634366     -0.0234826223     0.0000000000
O       0.0001807837     -1.2705873840     -0.0000000000
O       -1.0211388403     0.6451579882     -0.0000000000
O       1.0212217750     0.6449839401     -0.0000000000
$end
--------------------------------------------------------------

             Standard Nuclear Orientation (Angstroms)
    I     Atom           X                Y                Z
 ----------------------------------------------------------------
    1      N      -0.0002634366    -0.0234826223     0.0000000000
    2      O       0.0001807837    -1.2705873840     0.0000000000
    3      O      -1.0211388403     0.6451579882     0.0000000000
    4      O       1.0212217750     0.6449839401     0.0000000000
 ----------------------------------------------------------------

    9    -280.1142919088      6.38E-05 Convergence criterion met
   11    -280.2227751150      4.80E-06 Convergence criterion met
 Total energy in the final basis set = -280.22277512

                    Orbital Energies (a.u.)
 --------------------------------------------------------------

 Alpha MOs
 -- Occupied --
-19.3922 -19.3920 -19.3651 -14.7884  -1.4757  -1.2517  -1.2446  -0.7940
 -0.7372  -0.7142  -0.7114  -0.5464  -0.5195  -0.4935  -0.4791  -0.4638

 Beta MOs
 -- Occupied --
-19.3810 -19.3809 -19.3593 -14.7893  -1.4634  -1.2281  -1.2253  -0.7745
 -0.7344  -0.6926  -0.6861  -0.4776  -0.4722  -0.4697  -0.4576

                    Cartesian Multipole Moments
 -----------------------------------------------------------------
    Charge (ESU x 10^10)
                -0.0000
    Dipole Moment (Debye)
         X       0.0014      Y       0.3388      Z       0.0000
       Tot       0.3388
    Quadrupole Moments (Debye-Ang)
        XX     -22.3043     XY       0.0015     YY     -23.0433
        XZ      -0.0000     YZ      -0.0000     ZZ     -20.0916

 Total job time:  15.18s(wall), 67.66s(cpu)
        *  Thank you very much for using Q-Chem.  Have a nice day.  *
