 Q-Chem 5.3 (devel), Q-Chem, Inc., Pleasanton, CA (2020)
 Q-Chem 5.3.0 for Intel X86 EM64T Linux

User input:
--------------------------------------------------------------
$rem
   JOBTYPE  sp
   EXCHANGE   omegaB97X-D
   BASIS   6-311+G(2df,2pd)
   UNRESTRICTED   True
   max_scf_cycles   250
   geom_opt_max_cycles   1500
   basis2 6-31G*
   scf_algorithm rca_diis
   SYM_IGNORE  TRUE
   print_input   true
   geom_opt_dmax   80
   pop_mulliken false
   XC_GRID 000075000302
$end

$molecule
0 2
N       0.0063428929     -0.0572403004     0.2712969498
O       -0.0100937630     -1.1917123479     -0.0997026448
O       -0.9731622635     0.6153593179     -0.0866170371
O       0.9769134154     0.6296652524     -0.0849772678
$end
--------------------------------------------------------------

             Standard Nuclear Orientation (Angstroms)
    I     Atom           X                Y                Z
 ----------------------------------------------------------------
    1      N       0.0063428929    -0.0572403004     0.2712969498
    2      O      -0.0100937630    -1.1917123479    -0.0997026448
    3      O      -0.9731622635     0.6153593179    -0.0866170371
    4      O       0.9769134154     0.6296652524    -0.0849772678
 ----------------------------------------------------------------

    9    -280.0443834285      9.24E-05 Convergence criterion met
   12    -280.1537464703      9.84E-06 Convergence criterion met
 Total energy in the final basis set = -280.15374647

                    Orbital Energies (a.u.)
 --------------------------------------------------------------

 Alpha MOs
 -- Occupied --
-19.3825 -19.3802 -19.3501 -14.7774  -1.4897  -1.2499  -1.2221  -0.7988
 -0.7365  -0.7093  -0.6981  -0.5575  -0.5122  -0.4756  -0.4607  -0.4402

 Beta MOs
 -- Occupied --
-19.3683 -19.3670 -19.3496 -14.7782  -1.4778  -1.2374  -1.1885  -0.7839
 -0.7261  -0.6872  -0.6798  -0.4864  -0.4783  -0.4529  -0.4351

                    Cartesian Multipole Moments
 -----------------------------------------------------------------
    Charge (ESU x 10^10)
                 0.0000
    Dipole Moment (Debye)
         X      -0.0213      Y       0.1073      Z       0.6789
       Tot       0.6877
    Quadrupole Moments (Debye-Ang)
        XX     -22.2784     XY      -0.0184     YY     -23.3206
        XZ       0.0091     YZ      -0.2483     ZZ     -19.4585

 Total job time:  14.87s(wall), 73.55s(cpu)
        *  Thank you very much for using Q-Chem.  Have a nice day.  *
