 Q-Chem 5.3 (devel), Q-Chem, Inc., Pleasanton, CA (2020)
 Q-Chem 5.3.0 for Intel X86 EM64T Linux

User input:
--------------------------------------------------------------
$rem
   JOBTYPE  sp
   EXCHANGE   omegaB97X-D
   BASIS   6-311+G(2df,2pd)
   UNRESTRICTED   True
   max_scf_cycles   250
   geom_opt_max_cycles   1500
   basis2 6-31G*
   scf_algorithm rca_diis
   SYM_IGNORE  TRUE
   print_input   true
   geom_opt_dmax   80
   pop_mulliken false
   XC_GRID 000075000302
$end

$molecule
0 2
N       0.0509882572     -0.0507463024     -0.0000000000
O       0.0256353085     -1.2441970766     0.0000000000
O       -1.0651679925     0.6864900952     0.0000000000
O       0.9885447086     0.6045252059     0.0000000000
$end
--------------------------------------------------------------

             Standard Nuclear Orientation (Angstroms)
    I     Atom           X                Y                Z
 ----------------------------------------------------------------
    1      N       0.0509882572    -0.0507463024     0.0000000000
    2      O       0.0256353085    -1.2441970766     0.0000000000
    3      O      -1.0651679925     0.6864900952     0.0000000000
    4      O       0.9885447086     0.6045252059     0.0000000000
 ----------------------------------------------------------------

   10    -280.1048075572      2.07E-05 Convergence criterion met
   11    -280.2156929040      3.12E-06 Convergence criterion met
 Total energy in the final basis set = -280.21569290

                    Orbital Energies (a.u.)
 --------------------------------------------------------------

 Alpha MOs
 -- Occupied --
-19.4078 -19.3698 -19.3501 -14.7809  -1.4872  -1.2734  -1.2268  -0.7905
 -0.7427  -0.7210  -0.6973  -0.5650  -0.5032  -0.4980  -0.4758  -0.4549

 Beta MOs
 -- Occupied --
-19.3894 -19.3639 -19.3474 -14.7817  -1.4785  -1.2650  -1.1843  -0.7695
 -0.7407  -0.7016  -0.6812  -0.4754  -0.4750  -0.4713  -0.4594

                    Cartesian Multipole Moments
 -----------------------------------------------------------------
    Charge (ESU x 10^10)
                -0.0000
    Dipole Moment (Debye)
         X      -0.1731      Y       0.3686      Z      -0.0000
       Tot       0.4072
    Quadrupole Moments (Debye-Ang)
        XX     -22.1257     XY      -0.0990     YY     -23.1004
        XZ      -0.0000     YZ       0.0000     ZZ     -20.0204

 Total job time:  18.15s(wall), 81.11s(cpu)
        *  Thank you very much for using Q-Chem.  Have a nice day.  *
