 Q-Chem 5.3 (devel), Q-Chem, Inc., Pleasanton, CA (2020)
 Q-Chem 5.3.0 for Intel X86 EM64T Linux

User input:
--------------------------------------------------------------
$rem
   JOBTYPE  sp
   EXCHANGE   omegaB97X-D
   BASIS   6-311+G(2df,2pd)
   UNRESTRICTED   True
   max_scf_cycles   250
   geom_opt_max_cycles   1500
   basis2 6-31G*
   scf_algorithm rca_diis
   SYM_IGNORE  TRUE
   print_input   true
   geom_opt_dmax   80
   pop_mulliken false
   XC_GRID 000075000302
$end

$molecule
0 2
N       -0.0003162905     0.0590743907     0.0000000000
O       0.0001733319     -1.3482222695     -0.0000000000
O       -1.0012243216     0.6426534101     -0.0000000000
O       1.0013675621     0.6425663907     -0.0000000000
$end
--------------------------------------------------------------

             Standard Nuclear Orientation (Angstroms)
    I     Atom           X                Y                Z
 ----------------------------------------------------------------
    1      N      -0.0003162905     0.0590743907     0.0000000000
    2      O       0.0001733319    -1.3482222695     0.0000000000
    3      O      -1.0012243216     0.6426534101     0.0000000000
    4      O       1.0013675621     0.6425663907     0.0000000000
 ----------------------------------------------------------------

   10    -280.0911294929      6.05E-05 Convergence criterion met
   14    -280.2025050179      1.58E-06 Convergence criterion met
 Total energy in the final basis set = -280.20250502

                    Orbital Energies (a.u.)
 --------------------------------------------------------------

 Alpha MOs
 -- Occupied --
-19.4142 -19.3558 -19.3557 -14.7767  -1.4812  -1.2680  -1.2124  -0.7933
 -0.7365  -0.7182  -0.6904  -0.5629  -0.5072  -0.5000  -0.4724  -0.4494

 Beta MOs
 -- Occupied --
-19.3951 -19.3521 -19.3520 -14.7776  -1.4756  -1.2603  -1.1641  -0.7729
 -0.7353  -0.7024  -0.6773  -0.4780  -0.4758  -0.4682  -0.4448

                    Cartesian Multipole Moments
 -----------------------------------------------------------------
    Charge (ESU x 10^10)
                -0.0000
    Dipole Moment (Debye)
         X      -0.0033      Y      -0.4030      Z       0.0000
       Tot       0.4030
    Quadrupole Moments (Debye-Ang)
        XX     -22.9301     XY      -0.0000     YY     -22.2477
        XZ      -0.0000     YZ       0.0000     ZZ     -20.0917

 Total job time:  17.31s(wall), 80.91s(cpu)
        *  Thank you very much for using Q-Chem.  Have a nice day.  *
