 Q-Chem 5.3 (devel), Q-Chem, Inc., Pleasanton, CA (2020)
 Q-Chem 5.3.0 for Intel X86 EM64T Linux

User input:
--------------------------------------------------------------
$rem
   JOBTYPE  sp
   EXCHANGE   omegaB97X-D
   BASIS   6-311+G(2df,2pd)
   UNRESTRICTED   True
   max_scf_cycles   250
   geom_opt_max_cycles   1500
   basis2 6-31G*
   scf_algorithm rca_diis
   SYM_IGNORE  TRUE
   print_input   true
   geom_opt_dmax   80
   pop_mulliken false
   XC_GRID 000075000302
$end

$molecule
0 2
N       -0.0001215077     -0.0592497866     -0.0000000000
O       0.0002099575     -1.2631729275     0.0000000000
O       -1.0501582136     0.6594177186     0.0000000000
O       1.0500700455     0.6590769174     0.0000000000
$end
--------------------------------------------------------------

             Standard Nuclear Orientation (Angstroms)
    I     Atom           X                Y                Z
 ----------------------------------------------------------------
    1      N      -0.0001215077    -0.0592497866     0.0000000000
    2      O       0.0002099575    -1.2631729275     0.0000000000
    3      O      -1.0501582136     0.6594177186     0.0000000000
    4      O       1.0500700455     0.6590769174     0.0000000000
 ----------------------------------------------------------------

    9    -280.1157227728      3.33E-05 Convergence criterion met
   11    -280.2232267459      2.45E-06 Convergence criterion met
 Total energy in the final basis set = -280.22322675

                    Orbital Energies (a.u.)
 --------------------------------------------------------------

 Alpha MOs
 -- Occupied --
-19.3942 -19.3942 -19.3661 -14.7870  -1.4531  -1.2547  -1.2225  -0.7970
 -0.7241  -0.7122  -0.7025  -0.5496  -0.5136  -0.4889  -0.4827  -0.4640

 Beta MOs
 -- Occupied --
-19.3816 -19.3815 -19.3638 -14.7879  -1.4425  -1.2394  -1.1907  -0.7776
 -0.7218  -0.6916  -0.6821  -0.4751  -0.4698  -0.4682  -0.4615

                    Cartesian Multipole Moments
 -----------------------------------------------------------------
    Charge (ESU x 10^10)
                -0.0000
    Dipole Moment (Debye)
         X       0.0007      Y       0.0792      Z      -0.0000
       Tot       0.0792
    Quadrupole Moments (Debye-Ang)
        XX     -22.2463     XY       0.0007     YY     -23.0697
        XZ       0.0000     YZ       0.0000     ZZ     -20.1914

 Total job time:  12.83s(wall), 62.49s(cpu)
        *  Thank you very much for using Q-Chem.  Have a nice day.  *
