 Q-Chem 5.3 (devel), Q-Chem, Inc., Pleasanton, CA (2020)
 Q-Chem 5.3.0 for Intel X86 EM64T Linux

User input:
--------------------------------------------------------------
$rem
   JOBTYPE  sp
   EXCHANGE   omegaB97X-D
   BASIS   6-311+G(2df,2pd)
   UNRESTRICTED   True
   max_scf_cycles   250
   geom_opt_max_cycles   1500
   basis2 6-31G*
   scf_algorithm rca_diis
   SYM_IGNORE  TRUE
   print_input   true
   geom_opt_dmax   80
   pop_mulliken false
   XC_GRID 000075000302
$end

$molecule
0 2
N       -0.0021304070     -0.0153140751     -0.0000000000
O       0.0017453514     -1.2193228844     0.0000000000
O       -1.0555675073     0.6162546024     0.0000000000
O       1.0559528447     0.6144542791     0.0000000000
$end
--------------------------------------------------------------

             Standard Nuclear Orientation (Angstroms)
    I     Atom           X                Y                Z
 ----------------------------------------------------------------
    1      N      -0.0021304070    -0.0153140751     0.0000000000
    2      O       0.0017453514    -1.2193228844     0.0000000000
    3      O      -1.0555675073     0.6162546024     0.0000000000
    4      O       1.0559528447     0.6144542791     0.0000000000
 ----------------------------------------------------------------

    8    -280.1162228162      6.89E-05 Convergence criterion met
   10    -280.2251936736      3.76E-06 Convergence criterion met
 Total energy in the final basis set = -280.22519367

                    Orbital Energies (a.u.)
 --------------------------------------------------------------

 Alpha MOs
 -- Occupied --
-19.3859 -19.3836 -19.3748 -14.7881  -1.4793  -1.2591  -1.2502  -0.7907
 -0.7408  -0.7160  -0.7113  -0.5389  -0.5279  -0.4889  -0.4857  -0.4658

 Beta MOs
 -- Occupied --
-19.3752 -19.3736 -19.3675 -14.7891  -1.4683  -1.2399  -1.2259  -0.7717
 -0.7384  -0.6925  -0.6884  -0.4747  -0.4743  -0.4665  -0.4636

                    Cartesian Multipole Moments
 -----------------------------------------------------------------
    Charge (ESU x 10^10)
                 0.0000
    Dipole Moment (Debye)
         X       0.0171      Y       0.0454      Z       0.0000
       Tot       0.0485
    Quadrupole Moments (Debye-Ang)
        XX     -22.5605     XY       0.0180     YY     -22.7542
        XZ       0.0000     YZ       0.0000     ZZ     -20.0440

 Total job time:  13.59s(wall), 61.32s(cpu)
        *  Thank you very much for using Q-Chem.  Have a nice day.  *
