 Q-Chem 5.3 (devel), Q-Chem, Inc., Pleasanton, CA (2020)
 Q-Chem 5.3.0 for Intel X86 EM64T Linux

User input:
--------------------------------------------------------------
$rem
   JOBTYPE  sp
   EXCHANGE   omegaB97X-D
   BASIS   6-311+G(2df,2pd)
   UNRESTRICTED   True
   max_scf_cycles   250
   geom_opt_max_cycles   1500
   basis2 6-31G*
   scf_algorithm rca_diis
   SYM_IGNORE  TRUE
   print_input   true
   geom_opt_dmax   80
   pop_mulliken false
   XC_GRID 000075000302
$end

$molecule
0 2
N       0.0000042383     -0.0671682033     -0.0000000000
O       0.0002347575     -1.2813070151     0.0000000000
O       -1.0737991386     0.6725116118     0.0000000000
O       1.0735604247     0.6720355286     0.0000000000
$end
--------------------------------------------------------------

             Standard Nuclear Orientation (Angstroms)
    I     Atom           X                Y                Z
 ----------------------------------------------------------------
    1      N       0.0000042383    -0.0671682033     0.0000000000
    2      O       0.0002347575    -1.2813070151     0.0000000000
    3      O      -1.0737991386     0.6725116118     0.0000000000
    4      O       1.0735604247     0.6720355286     0.0000000000
 ----------------------------------------------------------------

   10    -280.1100482842      2.89E-05 Convergence criterion met
   10    -280.2165830736      9.66E-06 Convergence criterion met
 Total energy in the final basis set = -280.21658307

                    Orbital Energies (a.u.)
 --------------------------------------------------------------

 Alpha MOs
 -- Occupied --
-19.3973 -19.3972 -19.3711 -14.7868  -1.4323  -1.2441  -1.2077  -0.8021
 -0.7110  -0.7076  -0.6987  -0.5472  -0.5120  -0.4870  -0.4822  -0.4660

 Beta MOs
 -- Occupied --
-19.3844 -19.3843 -19.3696 -14.7877  -1.4226  -1.2281  -1.1742  -0.7833
 -0.7090  -0.6884  -0.6797  -0.4748  -0.4693  -0.4671  -0.4556

                    Cartesian Multipole Moments
 -----------------------------------------------------------------
    Charge (ESU x 10^10)
                -0.0000
    Dipole Moment (Debye)
         X      -0.0008      Y       0.0079      Z       0.0000
       Tot       0.0080
    Quadrupole Moments (Debye-Ang)
        XX     -22.2438     XY      -0.0003     YY     -23.0767
        XZ      -0.0000     YZ      -0.0000     ZZ     -20.3245

 Total job time:  13.29s(wall), 63.96s(cpu)
        *  Thank you very much for using Q-Chem.  Have a nice day.  *
