 Q-Chem 5.3 (devel), Q-Chem, Inc., Pleasanton, CA (2020)
 Q-Chem 5.3.0 for Intel X86 EM64T Linux

User input:
--------------------------------------------------------------
$rem
   JOBTYPE  sp
   EXCHANGE   omegaB97X-D
   BASIS   6-311+G(2df,2pd)
   UNRESTRICTED   True
   max_scf_cycles   250
   geom_opt_max_cycles   1500
   basis2 6-31G*
   scf_algorithm rca_diis
   SYM_IGNORE  TRUE
   print_input   true
   geom_opt_dmax   80
   pop_mulliken false
   XC_GRID 000075000302
$end

$molecule
0 2
N       0.0097030382     -0.2194754761     0.0000000000
O       -0.0051788906     -1.3615485189     -0.0000000000
O       -0.8194855970     0.7873838655     -0.0000000000
O       0.8149617312     0.7897120514     -0.0000000000
$end
--------------------------------------------------------------

             Standard Nuclear Orientation (Angstroms)
    I     Atom           X                Y                Z
 ----------------------------------------------------------------
    1      N       0.0097030382    -0.2194754761     0.0000000000
    2      O      -0.0051788906    -1.3615485189     0.0000000000
    3      O      -0.8194855970     0.7873838655     0.0000000000
    4      O       0.8149617312     0.7897120514     0.0000000000
 ----------------------------------------------------------------

    7    -280.0375750642      5.09E-05 Convergence criterion met
    7    -280.1478617413      8.70E-06 Convergence criterion met
 Total energy in the final basis set = -280.14786174

                    Orbital Energies (a.u.)
 --------------------------------------------------------------

 Alpha MOs
 -- Occupied --
-19.3951 -19.3570 -19.3531 -14.7809  -1.4785  -1.3386  -1.1147  -0.8011
 -0.7357  -0.7067  -0.6941  -0.5962  -0.5129  -0.4824  -0.4316  -0.3588

 Beta MOs
 -- Occupied --
-19.3962 -19.3417 -19.3373 -14.7815  -1.4687  -1.3216  -1.0794  -0.7880
 -0.7344  -0.6925  -0.6804  -0.5067  -0.5048  -0.4758  -0.4094

                    Cartesian Multipole Moments
 -----------------------------------------------------------------
    Charge (ESU x 10^10)
                 0.0000
    Dipole Moment (Debye)
         X       0.0592      Y      -0.9640      Z       0.0000
       Tot       0.9659
    Quadrupole Moments (Debye-Ang)
        XX     -22.5267     XY       0.0187     YY     -22.3753
        XZ      -0.0000     YZ      -0.0000     ZZ     -20.0381

 Total job time:  10.17s(wall), 46.43s(cpu)
        *  Thank you very much for using Q-Chem.  Have a nice day.  *
