 Q-Chem 5.3 (devel), Q-Chem, Inc., Pleasanton, CA (2020)
 Q-Chem 5.3.0 for Intel X86 EM64T Linux

User input:
--------------------------------------------------------------
$rem
   JOBTYPE  sp
   EXCHANGE   omegaB97X-D
   BASIS   6-311+G(2df,2pd)
   UNRESTRICTED   True
   max_scf_cycles   250
   geom_opt_max_cycles   1500
   basis2 6-31G*
   scf_algorithm rca_diis
   SYM_IGNORE  TRUE
   print_input   true
   geom_opt_dmax   80
   pop_mulliken false
   XC_GRID 000075000302
$end

$molecule
0 2
N       0.0000455711     -0.0534279529     0.1390436477
O       -0.0002719508     -1.2318749644     -0.0512199321
O       -1.0123497236     0.6404681432     -0.0439508742
O       1.0125763850     0.6409066961     -0.0438728414
$end
--------------------------------------------------------------

             Standard Nuclear Orientation (Angstroms)
    I     Atom           X                Y                Z
 ----------------------------------------------------------------
    1      N       0.0000455711    -0.0534279529     0.1390436477
    2      O      -0.0002719508    -1.2318749644    -0.0512199321
    3      O      -1.0123497236     0.6404681432    -0.0439508742
    4      O       1.0125763850     0.6409066961    -0.0438728414
 ----------------------------------------------------------------

    9    -280.0994195806      4.05E-05 Convergence criterion met
   11    -280.2082945115      7.54E-06 Convergence criterion met
 Total energy in the final basis set = -280.20829451

                    Orbital Energies (a.u.)
 --------------------------------------------------------------

 Alpha MOs
 -- Occupied --
-19.3882 -19.3881 -19.3586 -14.7844  -1.4788  -1.2617  -1.2339  -0.7935
 -0.7375  -0.7145  -0.7046  -0.5533  -0.5148  -0.4859  -0.4779  -0.4567

 Beta MOs
 -- Occupied --
-19.3756 -19.3756 -19.3560 -14.7853  -1.4674  -1.2472  -1.2032  -0.7753
 -0.7328  -0.6927  -0.6833  -0.4790  -0.4767  -0.4630  -0.4558

                    Cartesian Multipole Moments
 -----------------------------------------------------------------
    Charge (ESU x 10^10)
                 0.0000
    Dipole Moment (Debye)
         X      -0.0003      Y       0.1378      Z       0.3415
       Tot       0.3683
    Quadrupole Moments (Debye-Ang)
        XX     -22.2555     XY      -0.0005     YY     -23.1121
        XZ      -0.0001     YZ      -0.1094     ZZ     -19.8967

 Total job time:  14.74s(wall), 67.02s(cpu)
        *  Thank you very much for using Q-Chem.  Have a nice day.  *
