 Q-Chem 5.3 (devel), Q-Chem, Inc., Pleasanton, CA (2020)
 Q-Chem 5.3.0 for Intel X86 EM64T Linux

User input:
--------------------------------------------------------------
$rem
   JOBTYPE  sp
   EXCHANGE   omegaB97X-D
   BASIS   6-311+G(2df,2pd)
   UNRESTRICTED   True
   max_scf_cycles   250
   geom_opt_max_cycles   1500
   basis2 6-31G*
   scf_algorithm rca_diis
   SYM_IGNORE  TRUE
   print_input   true
   geom_opt_dmax   80
   pop_mulliken false
   XC_GRID 000075000302
$end

$molecule
0 2
N       -0.2062825858     -0.0568437529     0.0000000000
O       0.1621470992     -1.1910671331     -0.0000000000
O       -1.0005351892     0.7025996774     -0.0000000000
O       1.0446709575     0.5413831306     -0.0000000000
$end
--------------------------------------------------------------

             Standard Nuclear Orientation (Angstroms)
    I     Atom           X                Y                Z
 ----------------------------------------------------------------
    1      N      -0.2062825858    -0.0568437529     0.0000000000
    2      O       0.1621470992    -1.1910671331     0.0000000000
    3      O      -1.0005351892     0.7025996774     0.0000000000
    4      O       1.0446709575     0.5413831306     0.0000000000
 ----------------------------------------------------------------

    9    -280.0668094515      7.74E-05 Convergence criterion met
   10    -280.1804378937      6.76E-06 Convergence criterion met
 Total energy in the final basis set = -280.18043789

                    Orbital Energies (a.u.)
 --------------------------------------------------------------

 Alpha MOs
 -- Occupied --
-19.3763 -19.3634 -19.3603 -14.7814  -1.4998  -1.3288  -1.1627  -0.7795
 -0.7532  -0.7263  -0.7006  -0.5760  -0.4979  -0.4652  -0.4623  -0.4441

 Beta MOs
 -- Occupied --
-19.3760 -19.3578 -19.3397 -14.7821  -1.4953  -1.3194  -1.1136  -0.7677
 -0.7526  -0.7041  -0.6924  -0.5050  -0.4934  -0.4391  -0.4373

                    Cartesian Multipole Moments
 -----------------------------------------------------------------
    Charge (ESU x 10^10)
                -0.0000
    Dipole Moment (Debye)
         X      -0.8369      Y       0.1283      Z       0.0000
       Tot       0.8467
    Quadrupole Moments (Debye-Ang)
        XX     -22.5802     XY       0.0827     YY     -22.4391
        XZ       0.0000     YZ       0.0000     ZZ     -19.9808

 Total job time:  16.45s(wall), 70.05s(cpu)
        *  Thank you very much for using Q-Chem.  Have a nice day.  *
