 Q-Chem 5.3 (devel), Q-Chem, Inc., Pleasanton, CA (2020)
 Q-Chem 5.3.0 for Intel X86 EM64T Linux

User input:
--------------------------------------------------------------
$rem
   JOBTYPE  sp
   EXCHANGE   omegaB97X-D
   BASIS   6-311+G(2df,2pd)
   UNRESTRICTED   True
   max_scf_cycles   250
   geom_opt_max_cycles   1500
   basis2 6-31G*
   scf_algorithm rca_diis
   SYM_IGNORE  TRUE
   print_input   true
   geom_opt_dmax   80
   pop_mulliken false
   XC_GRID 000075000302
$end

$molecule
0 2
N       0.2051846612     -0.0477932247     -0.0000000000
O       -0.1639764964     -1.1841888143     0.0000000000
O       -1.0506581368     0.5313953174     0.0000000000
O       1.0094502538     0.6966586436     0.0000000000
$end
--------------------------------------------------------------

             Standard Nuclear Orientation (Angstroms)
    I     Atom           X                Y                Z
 ----------------------------------------------------------------
    1      N       0.2051846612    -0.0477932247     0.0000000000
    2      O      -0.1639764964    -1.1841888143     0.0000000000
    3      O      -1.0506581368     0.5313953174     0.0000000000
    4      O       1.0094502538     0.6966586436     0.0000000000
 ----------------------------------------------------------------

   10    -280.0679101335      4.27E-05 Convergence criterion met
   10    -280.1815818447      6.39E-06 Convergence criterion met
 Total energy in the final basis set = -280.18158184

                    Orbital Energies (a.u.)
 --------------------------------------------------------------

 Alpha MOs
 -- Occupied --
-19.3766 -19.3637 -19.3597 -14.7812  -1.5014  -1.3300  -1.1626  -0.7795
 -0.7541  -0.7263  -0.7014  -0.5751  -0.4988  -0.4672  -0.4612  -0.4427

 Beta MOs
 -- Occupied --
-19.3765 -19.3575 -19.3394 -14.7819  -1.4971  -1.3196  -1.1147  -0.7676
 -0.7535  -0.7044  -0.6927  -0.5038  -0.4939  -0.4413  -0.4366

                    Cartesian Multipole Moments
 -----------------------------------------------------------------
    Charge (ESU x 10^10)
                -0.0000
    Dipole Moment (Debye)
         X       0.8621      Y       0.1507      Z      -0.0000
       Tot       0.8752
    Quadrupole Moments (Debye-Ang)
        XX     -22.5993     XY      -0.1012     YY     -22.3957
        XZ      -0.0000     YZ      -0.0000     ZZ     -19.9703

 Total job time:  14.63s(wall), 66.55s(cpu)
        *  Thank you very much for using Q-Chem.  Have a nice day.  *
