 Q-Chem 5.3 (devel), Q-Chem, Inc., Pleasanton, CA (2020)
 Q-Chem 5.3.0 for Intel X86 EM64T Linux

User input:
--------------------------------------------------------------
$rem
   JOBTYPE  sp
   EXCHANGE   omegaB97X-D
   BASIS   6-311+G(2df,2pd)
   UNRESTRICTED   True
   max_scf_cycles   250
   geom_opt_max_cycles   1500
   basis2 6-31G*
   scf_algorithm rca_diis
   SYM_IGNORE  TRUE
   print_input   true
   geom_opt_dmax   80
   pop_mulliken false
   XC_GRID 000075000302
$end

$molecule
0 2
N       -0.0770837677     -0.0505369546     0.0000000000
O       -0.0379786639     -1.2435850390     -0.0000000000
O       -0.9706464490     0.5838522044     -0.0000000000
O       1.0857091624     0.7063417113     -0.0000000000
$end
--------------------------------------------------------------

             Standard Nuclear Orientation (Angstroms)
    I     Atom           X                Y                Z
 ----------------------------------------------------------------
    1      N      -0.0770837677    -0.0505369546     0.0000000000
    2      O      -0.0379786639    -1.2435850390     0.0000000000
    3      O      -0.9706464490     0.5838522044     0.0000000000
    4      O       1.0857091624     0.7063417113     0.0000000000
 ----------------------------------------------------------------

    9    -280.0862434240      6.57E-05 Convergence criterion met
   11    -280.1999071103      8.82E-06 Convergence criterion met
 Total energy in the final basis set = -280.19990711

                    Orbital Energies (a.u.)
 --------------------------------------------------------------

 Alpha MOs
 -- Occupied --
-19.4059 -19.3676 -19.3407 -14.7759  -1.5057  -1.2794  -1.2124  -0.7886
 -0.7508  -0.7256  -0.6938  -0.5679  -0.4980  -0.4964  -0.4732  -0.4510

 Beta MOs
 -- Occupied --
-19.3858 -19.3638 -19.3385 -14.7766  -1.4995  -1.2734  -1.1624  -0.7676
 -0.7494  -0.7087  -0.6821  -0.4774  -0.4754  -0.4677  -0.4550

                    Cartesian Multipole Moments
 -----------------------------------------------------------------
    Charge (ESU x 10^10)
                -0.0000
    Dipole Moment (Debye)
         X       0.0365      Y       0.5506      Z      -0.0000
       Tot       0.5518
    Quadrupole Moments (Debye-Ang)
        XX     -22.0225     XY       0.0148     YY     -23.1495
        XZ       0.0000     YZ       0.0000     ZZ     -19.9923

 Total job time:  16.46s(wall), 72.35s(cpu)
        *  Thank you very much for using Q-Chem.  Have a nice day.  *
