 Q-Chem 5.3 (devel), Q-Chem, Inc., Pleasanton, CA (2020)
 Q-Chem 5.3.0 for Intel X86 EM64T Linux

User input:
--------------------------------------------------------------
$rem
   JOBTYPE  sp
   EXCHANGE   omegaB97X-D
   BASIS   6-311+G(2df,2pd)
   UNRESTRICTED   True
   max_scf_cycles   250
   geom_opt_max_cycles   1500
   basis2 6-31G*
   scf_algorithm rca_diis
   SYM_IGNORE  TRUE
   print_input   true
   geom_opt_dmax   80
   pop_mulliken false
   XC_GRID 000075000302
$end

$molecule
0 2
N       0.2546748499     -0.0472970423     -0.0000000000
O       -0.2033430792     -1.1511897840     0.0000000000
O       -1.0565086820     0.4938791547     0.0000000000
O       1.0051771931     0.7006795936     0.0000000000
$end
--------------------------------------------------------------

             Standard Nuclear Orientation (Angstroms)
    I     Atom           X                Y                Z
 ----------------------------------------------------------------
    1      N       0.2546748499    -0.0472970423     0.0000000000
    2      O      -0.2033430792    -1.1511897840     0.0000000000
    3      O      -1.0565086820     0.4938791547     0.0000000000
    4      O       1.0051771931     0.7006795936     0.0000000000
 ----------------------------------------------------------------

    9    -280.0265121866      7.97E-05 Convergence criterion met
    9    -280.1438797530      8.83E-06 Convergence criterion met
 Total energy in the final basis set = -280.14387975

                    Orbital Energies (a.u.)
 --------------------------------------------------------------

 Alpha MOs
 -- Occupied --
-19.3907 -19.3665 -19.3283 -14.7815  -1.5263  -1.3500  -1.1292  -0.7804
 -0.7691  -0.7331  -0.7091  -0.5770  -0.5089  -0.4550  -0.4382  -0.4166

 Beta MOs
 -- Occupied --
-19.3912 -19.3590 -19.3083 -14.7822  -1.5242  -1.3370  -1.0816  -0.7725
 -0.7691  -0.7121  -0.6998  -0.5119  -0.5031  -0.4272  -0.4134

                    Cartesian Multipole Moments
 -----------------------------------------------------------------
    Charge (ESU x 10^10)
                -0.0000
    Dipole Moment (Debye)
         X       1.5426      Y       0.0712      Z       0.0000
       Tot       1.5443
    Quadrupole Moments (Debye-Ang)
        XX     -22.6133     XY       0.1168     YY     -22.1858
        XZ       0.0000     YZ      -0.0000     ZZ     -19.9489

 Total job time:  11.75s(wall), 57.84s(cpu)
        *  Thank you very much for using Q-Chem.  Have a nice day.  *
