 Q-Chem 5.3 (devel), Q-Chem, Inc., Pleasanton, CA (2020)
 Q-Chem 5.3.0 for Intel X86 EM64T Linux

User input:
--------------------------------------------------------------
$rem
   JOBTYPE  sp
   EXCHANGE   omegaB97X-D
   BASIS   6-311+G(2df,2pd)
   UNRESTRICTED   True
   max_scf_cycles   250
   geom_opt_max_cycles   1500
   basis2 6-31G*
   scf_algorithm rca_diis
   SYM_IGNORE  TRUE
   print_input   true
   geom_opt_dmax   80
   pop_mulliken false
   XC_GRID 000075000302
$end

$molecule
0 2
N       -0.0002119921     -0.1078163535     -0.0000000000
O       0.0001909308     -1.1947292152     0.0000000000
O       -1.0347834889     0.6494409766     0.0000000000
O       1.0348048320     0.6491765141     0.0000000000
$end
--------------------------------------------------------------

             Standard Nuclear Orientation (Angstroms)
    I     Atom           X                Y                Z
 ----------------------------------------------------------------
    1      N      -0.0002119921    -0.1078163535     0.0000000000
    2      O       0.0001909308    -1.1947292152     0.0000000000
    3      O      -1.0347834889     0.6494409766     0.0000000000
    4      O       1.0348048320     0.6491765141     0.0000000000
 ----------------------------------------------------------------

    8    -280.0936346408      6.18E-05 Convergence criterion met
   10    -280.2065537816      2.60E-06 Convergence criterion met
 Total energy in the final basis set = -280.20655378

                    Orbital Energies (a.u.)
 --------------------------------------------------------------

 Alpha MOs
 -- Occupied --
-19.3753 -19.3751 -19.3723 -14.7811  -1.5078  -1.2927  -1.2057  -0.7842
 -0.7542  -0.7257  -0.7083  -0.5505  -0.5042  -0.4943  -0.4749  -0.4616

 Beta MOs
 -- Occupied --
-19.3715 -19.3620 -19.3619 -14.7819  -1.5029  -1.2727  -1.1729  -0.7671
 -0.7534  -0.7058  -0.6917  -0.4849  -0.4804  -0.4553  -0.4540

                    Cartesian Multipole Moments
 -----------------------------------------------------------------
    Charge (ESU x 10^10)
                 0.0000
    Dipole Moment (Debye)
         X       0.0013      Y      -0.6514      Z       0.0000
       Tot       0.6514
    Quadrupole Moments (Debye-Ang)
        XX     -22.3958     XY       0.0008     YY     -22.7153
        XZ      -0.0000     YZ       0.0000     ZZ     -19.9725

 Total job time:  12.36s(wall), 58.44s(cpu)
        *  Thank you very much for using Q-Chem.  Have a nice day.  *
