 Q-Chem 5.3 (devel), Q-Chem, Inc., Pleasanton, CA (2020)
 Q-Chem 5.3.0 for Intel X86 EM64T Linux

User input:
--------------------------------------------------------------
$rem
   JOBTYPE  sp
   EXCHANGE   omegaB97X-D
   BASIS   6-311+G(2df,2pd)
   UNRESTRICTED   True
   max_scf_cycles   250
   geom_opt_max_cycles   1500
   basis2 6-31G*
   scf_algorithm rca_diis
   SYM_IGNORE  TRUE
   print_input   true
   geom_opt_dmax   80
   pop_mulliken false
   XC_GRID 000075000302
$end

$molecule
0 2
N       -0.0002130100     -0.0523415011     0.0927120379
O       0.0001299577     -1.2392853678     -0.0341809449
O       -1.0201494881     0.6439128483     -0.0292817386
O       1.0202328223     0.6437859426     -0.0292493544
$end
--------------------------------------------------------------

             Standard Nuclear Orientation (Angstroms)
    I     Atom           X                Y                Z
 ----------------------------------------------------------------
    1      N      -0.0002130100    -0.0523415011     0.0927120379
    2      O       0.0001299577    -1.2392853678    -0.0341809449
    3      O      -1.0201494881     0.6439128483    -0.0292817386
    4      O       1.0202328223     0.6437859426    -0.0292493544
 ----------------------------------------------------------------

    9    -280.1092370245      3.85E-05 Convergence criterion met
   11    -280.2180501005      5.09E-06 Convergence criterion met
 Total energy in the final basis set = -280.21805010

                    Orbital Energies (a.u.)
 --------------------------------------------------------------

 Alpha MOs
 -- Occupied --
-19.3895 -19.3893 -19.3602 -14.7857  -1.4769  -1.2638  -1.2363  -0.7925
 -0.7378  -0.7155  -0.7057  -0.5525  -0.5151  -0.4884  -0.4809  -0.4595

 Beta MOs
 -- Occupied --
-19.3770 -19.3769 -19.3573 -14.7866  -1.4656  -1.2491  -1.2061  -0.7734
 -0.7343  -0.6936  -0.6840  -0.4765  -0.4762  -0.4654  -0.4609

                    Cartesian Multipole Moments
 -----------------------------------------------------------------
    Charge (ESU x 10^10)
                 0.0000
    Dipole Moment (Debye)
         X       0.0014      Y       0.1413      Z       0.2276
       Tot       0.2679
    Quadrupole Moments (Debye-Ang)
        XX     -22.2495     XY       0.0011     YY     -23.0740
        XZ      -0.0002     YZ      -0.0706     ZZ     -19.9839

 Total job time:  18.11s(wall), 78.31s(cpu)
        *  Thank you very much for using Q-Chem.  Have a nice day.  *
