 Q-Chem 5.3 (devel), Q-Chem, Inc., Pleasanton, CA (2020)
 Q-Chem 5.3.0 for Intel X86 EM64T Linux

User input:
--------------------------------------------------------------
$rem
   JOBTYPE  sp
   EXCHANGE   omegaB97X-D
   BASIS   6-311+G(2df,2pd)
   UNRESTRICTED   True
   max_scf_cycles   250
   geom_opt_max_cycles   1500
   basis2 6-31G*
   scf_algorithm rca_diis
   SYM_IGNORE  TRUE
   print_input   true
   geom_opt_dmax   80
   pop_mulliken false
   XC_GRID 000075000302
$end

$molecule
0 2
N       -0.0002290654     -0.0795207025     -0.0000000000
O       0.0001873164     -1.2198308643     0.0000000000
O       -1.0309516592     0.6478287902     0.0000000000
O       1.0309936899     0.6475946986     0.0000000000
$end
--------------------------------------------------------------

             Standard Nuclear Orientation (Angstroms)
    I     Atom           X                Y                Z
 ----------------------------------------------------------------
    1      N      -0.0002290654    -0.0795207025     0.0000000000
    2      O       0.0001873164    -1.2198308643     0.0000000000
    3      O      -1.0309516592     0.6478287902     0.0000000000
    4      O       1.0309936899     0.6475946986     0.0000000000
 ----------------------------------------------------------------

    8    -280.1114317674      9.20E-05 Convergence criterion met
   10    -280.2215624036      3.17E-06 Convergence criterion met
 Total energy in the final basis set = -280.22156240

                    Orbital Energies (a.u.)
 --------------------------------------------------------------

 Alpha MOs
 -- Occupied --
-19.3841 -19.3839 -19.3650 -14.7843  -1.4844  -1.2837  -1.2223  -0.7881
 -0.7431  -0.7191  -0.7056  -0.5528  -0.5100  -0.4895  -0.4837  -0.4621

 Beta MOs
 -- Occupied --
-19.3711 -19.3710 -19.3633 -14.7852  -1.4761  -1.2668  -1.1905  -0.7691
 -0.7413  -0.6979  -0.6870  -0.4813  -0.4753  -0.4645  -0.4614

                    Cartesian Multipole Moments
 -----------------------------------------------------------------
    Charge (ESU x 10^10)
                 0.0000
    Dipole Moment (Debye)
         X       0.0015      Y      -0.2119      Z       0.0000
       Tot       0.2119
    Quadrupole Moments (Debye-Ang)
        XX     -22.2911     XY       0.0010     YY     -22.9180
        XZ       0.0000     YZ       0.0000     ZZ     -20.0127

 Total job time:  12.55s(wall), 59.15s(cpu)
        *  Thank you very much for using Q-Chem.  Have a nice day.  *
