 Q-Chem 5.3 (devel), Q-Chem, Inc., Pleasanton, CA (2020)
 Q-Chem 5.3.0 for Intel X86 EM64T Linux

User input:
--------------------------------------------------------------
$rem
   JOBTYPE  sp
   EXCHANGE   omegaB97X-D
   BASIS   6-311+G(2df,2pd)
   UNRESTRICTED   True
   max_scf_cycles   250
   geom_opt_max_cycles   1500
   basis2 6-31G*
   scf_algorithm rca_diis
   SYM_IGNORE  TRUE
   print_input   true
   geom_opt_dmax   80
   pop_mulliken false
   XC_GRID 000075000302
$end

$molecule
0 2
N       -0.0003717101     0.1396521692     0.0000000000
O       0.0001695862     -1.4278363873     -0.0000000000
O       -0.9753770105     0.6421310431     -0.0000000000
O       0.9755794163     0.6421250970     -0.0000000000
$end
--------------------------------------------------------------

             Standard Nuclear Orientation (Angstroms)
    I     Atom           X                Y                Z
 ----------------------------------------------------------------
    1      N      -0.0003717101     0.1396521692     0.0000000000
    2      O       0.0001695862    -1.4278363873     0.0000000000
    3      O      -0.9753770105     0.6421310431     0.0000000000
    4      O       0.9755794163     0.6421250970     0.0000000000
 ----------------------------------------------------------------

    9    -280.0487921276      7.64E-05 Convergence criterion met
   10    -280.1665117106      5.39E-06 Convergence criterion met
 Total energy in the final basis set = -280.16651171

                    Orbital Energies (a.u.)
 --------------------------------------------------------------

 Alpha MOs
 -- Occupied --
-19.3895 -19.3487 -19.3483 -14.7645  -1.5189  -1.3160  -1.1559  -0.7849
 -0.7583  -0.7264  -0.6880  -0.5567  -0.4840  -0.4813  -0.4811  -0.4508

 Beta MOs
 -- Occupied --
-19.3664 -19.3480 -19.3475 -14.7653  -1.5181  -1.3148  -1.0876  -0.7684
 -0.7587  -0.7201  -0.6854  -0.4806  -0.4632  -0.4606  -0.4514

                    Cartesian Multipole Moments
 -----------------------------------------------------------------
    Charge (ESU x 10^10)
                -0.0000
    Dipole Moment (Debye)
         X      -0.0052      Y       0.1143      Z      -0.0000
       Tot       0.1144
    Quadrupole Moments (Debye-Ang)
        XX     -22.5211     XY      -0.0011     YY     -22.4987
        XZ      -0.0000     YZ       0.0000     ZZ     -20.0065

 Total job time:  12.53s(wall), 59.25s(cpu)
        *  Thank you very much for using Q-Chem.  Have a nice day.  *
