 Q-Chem 5.2 (devel), Q-Chem, Inc., Pleasanton, CA (2019)
 Q-Chem 5.2.2 for Intel X86 EM64T Linux

User input:
--------------------------------------------------------------
$rem
   JOBTYPE  sp
   EXCHANGE   omegaB97X-D
   BASIS   6-311+G(2df,2pd)
   max_scf_cycles   250
   geom_opt_max_cycles   1500
   basis2 6-31G*
   scf_algorithm rca_diis
   SYM_IGNORE  TRUE
   print_input   true
   geom_opt_dmax   80
   pop_mulliken false
   XC_GRID 000075000302
$end

$molecule
0 1
C       1.2489545529     -0.1242147916     0.3136620012
C       -0.0570496129     -0.4234246301     -0.4126632004
H       1.8921854266     0.5189676698     -0.2903441675
H       1.8013034364     -1.0439198758     0.5168902033
H       1.0735768474     0.3777423023     1.2657540836
C       -1.2105575991     0.4415159400     0.0813279640
H       -0.3117491314     -1.4781843123     -0.2847015396
H       0.0795331031     -0.2703639382     -1.4858274969
H       -1.3866418224     0.2843571515     1.1473852697
H       -2.1372366070     0.2159609867     -0.4473627908
H       -0.9923186541     1.5015641639     -0.0630753079
--------------------------------------------------------------

             Standard Nuclear Orientation (Angstroms)
    I     Atom           X                Y                Z
 ----------------------------------------------------------------
    1      C       1.2489545529    -0.1242147916     0.3136620012
    2      C      -0.0570496129    -0.4234246301    -0.4126632004
    3      H       1.8921854266     0.5189676698    -0.2903441675
    4      H       1.8013034364    -1.0439198758     0.5168902033
    5      H       1.0735768474     0.3777423023     1.2657540836
    6      C      -1.2105575991     0.4415159400     0.0813279640
    7      H      -0.3117491314    -1.4781843123    -0.2847015396
    8      H       0.0795331031    -0.2703639382    -1.4858274969
    9      H      -1.3866418224     0.2843571515     1.1473852697
   10      H      -2.1372366070     0.2159609867    -0.4473627908
   11      H      -0.9923186541     1.5015641639    -0.0630753079
 ----------------------------------------------------------------

    7    -119.0990847474      4.42E-06 Convergence criterion met
    6    -119.1421405465      3.90E-06 Convergence criterion met
 Total energy in the final basis set = -119.14214055

                    Orbital Energies (a.u.)
 --------------------------------------------------------------

 Alpha MOs
 -- Occupied --
-10.2730 -10.2652 -10.2639  -0.8810  -0.7769  -0.6775  -0.5449  -0.5249
 -0.4811  -0.4668  -0.4193  -0.4161  -0.4032

                    Cartesian Multipole Moments
 -----------------------------------------------------------------
    Charge (ESU x 10^10)
                 0.0000
    Dipole Moment (Debye)
         X      -0.0027      Y      -0.0582      Z      -0.0635
       Tot       0.0862
    Quadrupole Moments (Debye-Ang)
        XX     -22.2191     XY       0.1349     YY     -21.5967
        XZ      -0.1428     YZ      -0.2448     ZZ     -21.5760

 Total job time:  40.33s(wall), 112.04s(cpu)
        *  Thank you very much for using Q-Chem.  Have a nice day.  *
