 Q-Chem 5.2 (devel), Q-Chem, Inc., Pleasanton, CA (2019)
 Q-Chem 5.2.2 for Intel X86 EM64T Linux

User input:
--------------------------------------------------------------
$rem
   JOBTYPE  sp
   EXCHANGE   omegaB97X-D
   BASIS   6-311+G(2df,2pd)
   max_scf_cycles   250
   geom_opt_max_cycles   1500
   basis2 6-31G*
   scf_algorithm rca_diis
   SYM_IGNORE  TRUE
   print_input   true
   geom_opt_dmax   80
   pop_mulliken false
   XC_GRID 000075000302
$end

$molecule
0 1
C       1.2307393518     -0.3682128822     0.1433331123
C       0.0374255053     0.3521475151     -0.4729550703
H       1.0664139568     -1.4474581168     0.1635341457
H       1.3943720727     -0.0412616502     1.1721714962
H       2.1471270425     -0.1800372217     -0.4169760362
C       -1.2549321000     0.1025034842     0.2952969631
H       -0.0869315684     0.0301323980     -1.5095861854
H       0.2384973959     1.4254848071     -0.5087270706
H       -1.4889402245     0.9455759943     0.9485208005
H       -1.1876756529     -0.7921210843     0.9152214061
H       -2.0960958399     -0.0267525776     -0.3887885425
--------------------------------------------------------------

             Standard Nuclear Orientation (Angstroms)
    I     Atom           X                Y                Z
 ----------------------------------------------------------------
    1      C       1.2307393518    -0.3682128822     0.1433331123
    2      C       0.0374255053     0.3521475151    -0.4729550703
    3      H       1.0664139568    -1.4474581168     0.1635341457
    4      H       1.3943720727    -0.0412616502     1.1721714962
    5      H       2.1471270425    -0.1800372217    -0.4169760362
    6      C      -1.2549321000     0.1025034842     0.2952969631
    7      H      -0.0869315684     0.0301323980    -1.5095861854
    8      H       0.2384973959     1.4254848071    -0.5087270706
    9      H      -1.4889402245     0.9455759943     0.9485208005
   10      H      -1.1876756529    -0.7921210843     0.9152214061
   11      H      -2.0960958399    -0.0267525776    -0.3887885425
 ----------------------------------------------------------------

    7    -119.0990782314      4.42E-06 Convergence criterion met
    6    -119.1421312753      3.90E-06 Convergence criterion met
 Total energy in the final basis set = -119.14213128

                    Orbital Energies (a.u.)
 --------------------------------------------------------------

 Alpha MOs
 -- Occupied --
-10.2730 -10.2652 -10.2639  -0.8810  -0.7769  -0.6775  -0.5449  -0.5249
 -0.4811  -0.4668  -0.4193  -0.4161  -0.4032

                    Cartesian Multipole Moments
 -----------------------------------------------------------------
    Charge (ESU x 10^10)
                 0.0000
    Dipole Moment (Debye)
         X       0.0010      Y       0.0523      Z      -0.0685
       Tot       0.0861
    Quadrupole Moments (Debye-Ang)
        XX     -22.2216     XY       0.1455     YY     -21.4875
        XZ       0.1215     YZ       0.2278     ZZ     -21.6829

 Total job time:  40.74s(wall), 113.11s(cpu)
        *  Thank you very much for using Q-Chem.  Have a nice day.  *
