 Q-Chem 5.2 (devel), Q-Chem, Inc., Pleasanton, CA (2019)
 Q-Chem 5.2.2 for Intel X86 EM64T Linux

User input:
--------------------------------------------------------------
$rem
   JOBTYPE  sp
   EXCHANGE   omegaB97X-D
   BASIS   6-311+G(2df,2pd)
   max_scf_cycles   250
   geom_opt_max_cycles   1500
   basis2 6-31G*
   scf_algorithm rca_diis
   SYM_IGNORE  TRUE
   print_input   true
   geom_opt_dmax   80
   pop_mulliken false
   XC_GRID 000075000302
$end

$molecule
0 1
C       1.2159778619     -0.4242131792     0.0978862066
C       0.0518291018     0.4065529939     -0.4287207358
H       1.0111273663     -1.4916835854     -0.0056780975
H       1.3897616968     -0.2240476051     1.1570912305
H       2.1399014595     -0.2074817230     -0.4392502452
C       -1.2505208844     0.1190430753     0.3088050047
H       -0.0825058672     0.2107061662     -1.4951923828
H       0.2932085159     1.4685666182     -0.3413898982
H       -1.7281468427     1.0462366591     0.6319610902
H       -1.0841923263     -0.4971455635     1.1930223546
H       -1.9564401422     -0.4065331907     -0.3374895081
--------------------------------------------------------------

             Standard Nuclear Orientation (Angstroms)
    I     Atom           X                Y                Z
 ----------------------------------------------------------------
    1      C       1.2159778619    -0.4242131792     0.0978862066
    2      C       0.0518291018     0.4065529939    -0.4287207358
    3      H       1.0111273663    -1.4916835854    -0.0056780975
    4      H       1.3897616968    -0.2240476051     1.1570912305
    5      H       2.1399014595    -0.2074817230    -0.4392502452
    6      C      -1.2505208844     0.1190430753     0.3088050047
    7      H      -0.0825058672     0.2107061662    -1.4951923828
    8      H       0.2932085159     1.4685666182    -0.3413898982
    9      H      -1.7281468427     1.0462366591     0.6319610902
   10      H      -1.0841923263    -0.4971455635     1.1930223546
   11      H      -1.9564401422    -0.4065331907    -0.3374895081
 ----------------------------------------------------------------

    7    -119.0980991430      4.40E-06 Convergence criterion met
    6    -119.1411841845      3.92E-06 Convergence criterion met
 Total energy in the final basis set = -119.14118418

                    Orbital Energies (a.u.)
 --------------------------------------------------------------

 Alpha MOs
 -- Occupied --
-10.2727 -10.2652 -10.2636  -0.8810  -0.7768  -0.6775  -0.5447  -0.5253
 -0.4806  -0.4676  -0.4194  -0.4157  -0.4022

                    Cartesian Multipole Moments
 -----------------------------------------------------------------
    Charge (ESU x 10^10)
                -0.0000
    Dipole Moment (Debye)
         X       0.0012      Y       0.0562      Z      -0.0638
       Tot       0.0850
    Quadrupole Moments (Debye-Ang)
        XX     -22.2383     XY       0.1347     YY     -21.5612
        XZ       0.1501     YZ       0.2497     ZZ     -21.5992

 Total job time:  40.33s(wall), 112.06s(cpu)
        *  Thank you very much for using Q-Chem.  Have a nice day.  *
