 Q-Chem 5.2 (devel), Q-Chem, Inc., Pleasanton, CA (2019)
 Q-Chem 5.2.2 for Intel X86 EM64T Linux

User input:
--------------------------------------------------------------
$rem
   JOBTYPE  sp
   EXCHANGE   omegaB97X-D
   BASIS   6-311+G(2df,2pd)
   max_scf_cycles   250
   geom_opt_max_cycles   1500
   basis2 6-31G*
   scf_algorithm rca_diis
   SYM_IGNORE  TRUE
   print_input   true
   geom_opt_dmax   80
   pop_mulliken false
   XC_GRID 000075000302
$end

$molecule
0 1
C       1.1306982013     -0.5860871958     -0.1603984949
C       0.1322666476     0.5651943889     -0.1809218482
H       0.7662838689     -1.4284432257     -0.7518593441
H       1.2910470520     -0.9446452930     0.8583810492
H       2.0978475032     -0.2867270931     -0.5655269129
C       -1.2274249269     0.1681333393     0.3814869467
H       0.0118163954     0.9247994360     -1.2055898849
H       0.5325327419     1.4048665156     0.3922329413
H       -1.9329603731     -0.0504277970     -0.4227201723
H       -1.6556014864     0.9611279965     0.9955452795
H       -1.1465056845     -0.7277904058     1.0004154595
--------------------------------------------------------------

             Standard Nuclear Orientation (Angstroms)
    I     Atom           X                Y                Z
 ----------------------------------------------------------------
    1      C       1.1306982013    -0.5860871958    -0.1603984949
    2      C       0.1322666476     0.5651943889    -0.1809218482
    3      H       0.7662838689    -1.4284432257    -0.7518593441
    4      H       1.2910470520    -0.9446452930     0.8583810492
    5      H       2.0978475032    -0.2867270931    -0.5655269129
    6      C      -1.2274249269     0.1681333393     0.3814869467
    7      H       0.0118163954     0.9247994360    -1.2055898849
    8      H       0.5325327419     1.4048665156     0.3922329413
    9      H      -1.9329603731    -0.0504277970    -0.4227201723
   10      H      -1.6556014864     0.9611279965     0.9955452795
   11      H      -1.1465056845    -0.7277904058     1.0004154595
 ----------------------------------------------------------------

    7    -119.0990939053      4.41E-06 Convergence criterion met
    6    -119.1421439341      3.93E-06 Convergence criterion met
 Total energy in the final basis set = -119.14214393

                    Orbital Energies (a.u.)
 --------------------------------------------------------------

 Alpha MOs
 -- Occupied --
-10.2730 -10.2653 -10.2639  -0.8811  -0.7768  -0.6776  -0.5450  -0.5253
 -0.4805  -0.4669  -0.4188  -0.4167  -0.4034

                    Cartesian Multipole Moments
 -----------------------------------------------------------------
    Charge (ESU x 10^10)
                 0.0000
    Dipole Moment (Debye)
         X       0.0155      Y       0.0764      Z      -0.0310
       Tot       0.0839
    Quadrupole Moments (Debye-Ang)
        XX     -22.1676     XY       0.1091     YY     -21.8206
        XZ       0.2288     YZ       0.1242     ZZ     -21.4017

 Total job time:  46.79s(wall), 130.30s(cpu)
        *  Thank you very much for using Q-Chem.  Have a nice day.  *
