 Q-Chem 5.2 (devel), Q-Chem, Inc., Pleasanton, CA (2019)
 Q-Chem 5.2.2 for Intel X86 EM64T Linux

User input:
--------------------------------------------------------------
$rem
   JOBTYPE  sp
   EXCHANGE   omegaB97X-D
   BASIS   6-311+G(2df,2pd)
   max_scf_cycles   250
   geom_opt_max_cycles   1500
   basis2 6-31G*
   scf_algorithm rca_diis
   SYM_IGNORE  TRUE
   print_input   true
   geom_opt_dmax   80
   pop_mulliken false
   XC_GRID 000075000302
$end

$molecule
0 1
C       1.1666775209     -0.5409274673     -0.0514994141
C       0.0985421781     0.5208559983     -0.2848154103
H       0.8588666829     -1.5016250772     -0.4692290658
H       1.3432625501     -0.6879859285     1.0159166290
H       2.1155732776     -0.2646435680     -0.5123542546
C       -1.2369304333     0.1543901874     0.3515317975
H       -0.0382542527     0.6703027633     -1.3584629843
H       0.4424060747     1.4776674436     0.1152298242
H       -2.0683008279     0.5748515059     -0.2179530730
H       -1.3103962203     0.5259869227     1.3741472015
H       -1.3714466107     -0.9288721141     0.3785337689
--------------------------------------------------------------

             Standard Nuclear Orientation (Angstroms)
    I     Atom           X                Y                Z
 ----------------------------------------------------------------
    1      C       1.1666775209    -0.5409274673    -0.0514994141
    2      C       0.0985421781     0.5208559983    -0.2848154103
    3      H       0.8588666829    -1.5016250772    -0.4692290658
    4      H       1.3432625501    -0.6879859285     1.0159166290
    5      H       2.1155732776    -0.2646435680    -0.5123542546
    6      C      -1.2369304333     0.1543901874     0.3515317975
    7      H      -0.0382542527     0.6703027633    -1.3584629843
    8      H       0.4424060747     1.4776674436     0.1152298242
    9      H      -2.0683008279     0.5748515059    -0.2179530730
   10      H      -1.3103962203     0.5259869227     1.3741472015
   11      H      -1.3714466107    -0.9288721141     0.3785337689
 ----------------------------------------------------------------

    7    -119.1004343071      4.45E-06 Convergence criterion met
    6    -119.1434428357      3.89E-06 Convergence criterion met
 Total energy in the final basis set = -119.14344284

                    Orbital Energies (a.u.)
 --------------------------------------------------------------

 Alpha MOs
 -- Occupied --
-10.2733 -10.2651 -10.2643  -0.8811  -0.7769  -0.6776  -0.5453  -0.5246
 -0.4814  -0.4659  -0.4186  -0.4168  -0.4049

                    Cartesian Multipole Moments
 -----------------------------------------------------------------
    Charge (ESU x 10^10)
                -0.0000
    Dipole Moment (Debye)
         X       0.0115      Y       0.0747      Z      -0.0427
       Tot       0.0868
    Quadrupole Moments (Debye-Ang)
        XX     -22.1523     XY       0.1537     YY     -21.7495
        XZ       0.2002     YZ       0.1936     ZZ     -21.4810

 Total job time:  39.68s(wall), 110.75s(cpu)
        *  Thank you very much for using Q-Chem.  Have a nice day.  *
