 Q-Chem 5.2 (devel), Q-Chem, Inc., Pleasanton, CA (2019)
 Q-Chem 5.2.2 for Intel X86 EM64T Linux

User input:
--------------------------------------------------------------
$rem
   JOBTYPE  sp
   EXCHANGE   omegaB97X-D
   BASIS   6-311+G(2df,2pd)
   max_scf_cycles   250
   geom_opt_max_cycles   1500
   basis2 6-31G*
   scf_algorithm rca_diis
   SYM_IGNORE  TRUE
   print_input   true
   geom_opt_dmax   80
   pop_mulliken false
   XC_GRID 000075000302
$end

$molecule
0 1
C       1.2550103106     -0.0489622509     0.3063873139
C       -0.0000000398     -0.0485751727     -0.5233644476
H       1.1762706612     -0.9606487413     0.8899515310
H       1.4708706798     0.9024065732     0.8013637698
H       2.1869693249     0.1681016354     -0.2223806283
C       -1.2550102381     -0.0489626733     0.3063872353
H       0.0000007254     -0.7658763355     -1.3553270979
H       -0.0000001803     0.6926547869     -1.3309083152
H       -1.1762684851     -0.9606482023     0.8899523963
H       -2.1869689222     0.1681052970     -0.2223799300
H       -1.4708738970     0.9024057495     0.8013631915
--------------------------------------------------------------

             Standard Nuclear Orientation (Angstroms)
    I     Atom           X                Y                Z
 ----------------------------------------------------------------
    1      C       1.2550103106    -0.0489622509     0.3063873139
    2      C      -0.0000000398    -0.0485751727    -0.5233644476
    3      H       1.1762706612    -0.9606487413     0.8899515310
    4      H       1.4708706798     0.9024065732     0.8013637698
    5      H       2.1869693249     0.1681016354    -0.2223806283
    6      C      -1.2550102381    -0.0489626733     0.3063872353
    7      H       0.0000007254    -0.7658763355    -1.3553270979
    8      H      -0.0000001803     0.6926547869    -1.3309083152
    9      H      -1.1762684851    -0.9606482023     0.8899523963
   10      H      -2.1869689222     0.1681052970    -0.2223799300
   11      H      -1.4708738970     0.9024057495     0.8013631915
 ----------------------------------------------------------------

    7    -119.0429930354      8.17E-06 Convergence criterion met
    6    -119.0896982101      3.82E-06 Convergence criterion met
 Total energy in the final basis set = -119.08969821

                    Orbital Energies (a.u.)
 --------------------------------------------------------------

 Alpha MOs
 -- Occupied --
-10.2720 -10.2667 -10.2667  -0.8870  -0.7852  -0.6917  -0.5768  -0.5110
 -0.5059  -0.4608  -0.4122  -0.3992  -0.3758

                    Cartesian Multipole Moments
 -----------------------------------------------------------------
    Charge (ESU x 10^10)
                -0.0000
    Dipole Moment (Debye)
         X      -0.0000      Y       0.2972      Z      -0.2599
       Tot       0.3948
    Quadrupole Moments (Debye-Ang)
        XX     -21.4672     XY      -0.0000     YY     -21.4098
        XZ      -0.0000     YZ      -0.5055     ZZ     -22.2830

 Total job time:  48.71s(wall), 135.95s(cpu)
        *  Thank you very much for using Q-Chem.  Have a nice day.  *
