 Q-Chem 5.2 (devel), Q-Chem, Inc., Pleasanton, CA (2019)
 Q-Chem 5.2.2 for Intel X86 EM64T Linux

User input:
--------------------------------------------------------------
$rem
   JOBTYPE  sp
   EXCHANGE   omegaB97X-D
   BASIS   6-311+G(2df,2pd)
   max_scf_cycles   250
   geom_opt_max_cycles   1500
   basis2 6-31G*
   scf_algorithm rca_diis
   SYM_IGNORE  TRUE
   print_input   true
   geom_opt_dmax   80
   pop_mulliken false
   XC_GRID 000075000302
$end

$molecule
0 1
C       1.2669185190     -0.0067464157     0.2592549620
C       -0.0000000496     0.0421894980     -0.5863310561
H       1.3033348334     -0.8330404634     0.8468040659
H       1.3065159583     0.9260078744     0.9617939960
H       2.1652109667     0.0115496999     -0.3606559581
C       -1.2669187157     -0.0067458948     0.2592549393
H       -0.0000001007     -0.9929463570     -1.3718549646
H       -0.0000000560     0.7552160613     -1.1151630835
H       -1.3033352136     -0.8330410051     0.8468047031
H       -2.1652102865     0.0115507756     -0.3606554387
H       -1.3065159158     0.9260068926     0.9617928537
--------------------------------------------------------------

             Standard Nuclear Orientation (Angstroms)
    I     Atom           X                Y                Z
 ----------------------------------------------------------------
    1      C       1.2669185190    -0.0067464157     0.2592549620
    2      C      -0.0000000496     0.0421894980    -0.5863310561
    3      H       1.3033348334    -0.8330404634     0.8468040659
    4      H       1.3065159583     0.9260078744     0.9617939960
    5      H       2.1652109667     0.0115496999    -0.3606559581
    6      C      -1.2669187157    -0.0067458948     0.2592549393
    7      H      -0.0000001007    -0.9929463570    -1.3718549646
    8      H      -0.0000000560     0.7552160613    -1.1151630835
    9      H      -1.3033352136    -0.8330410051     0.8468047031
   10      H      -2.1652102865     0.0115507756    -0.3606554387
   11      H      -1.3065159158     0.9260068926     0.9617928537
 ----------------------------------------------------------------

    7    -119.0314424459      5.86E-06 Convergence criterion met
    6    -119.0773584270      4.21E-06 Convergence criterion met
 Total energy in the final basis set = -119.07735843

                    Orbital Energies (a.u.)
 --------------------------------------------------------------

 Alpha MOs
 -- Occupied --
-10.2723 -10.2661 -10.2661  -0.8876  -0.7802  -0.6958  -0.5442  -0.5216
 -0.4933  -0.4562  -0.4411  -0.4204  -0.3877

                    Cartesian Multipole Moments
 -----------------------------------------------------------------
    Charge (ESU x 10^10)
                -0.0000
    Dipole Moment (Debye)
         X      -0.0000      Y       0.0694      Z       0.0010
       Tot       0.0694
    Quadrupole Moments (Debye-Ang)
        XX     -22.0559     XY      -0.0000     YY     -21.4024
        XZ      -0.0000     YZ      -0.3814     ZZ     -22.0140

 Total job time:  48.99s(wall), 136.60s(cpu)
        *  Thank you very much for using Q-Chem.  Have a nice day.  *
