 Q-Chem 5.2 (devel), Q-Chem, Inc., Pleasanton, CA (2019)
 Q-Chem 5.2.2 for Intel X86 EM64T Linux

User input:
--------------------------------------------------------------
$rem
   JOBTYPE  sp
   EXCHANGE   omegaB97X-D
   BASIS   6-311+G(2df,2pd)
   max_scf_cycles   250
   geom_opt_max_cycles   1500
   basis2 6-31G*
   scf_algorithm rca_diis
   SYM_IGNORE  TRUE
   print_input   true
   geom_opt_dmax   80
   pop_mulliken false
   XC_GRID 000075000302
$end

$molecule
0 1
C       1.2671197341     0.0045031161     0.2591488750
C       0.0000000404     -0.0281392589     -0.5871456247
H       1.3063819306     -0.9116841686     0.9421276655
H       1.3042447402     0.8497031150     0.8654649827
H       2.1639230162     -0.0076797564     -0.3598005169
C       -1.2671196062     0.0045028640     0.2591488931
H       0.0000001175     -0.7938977029     -1.1572752371
H       -0.0000001356     0.9523516879     -1.3284161142
H       -1.3063816228     -0.9116836558     0.9421272794
H       -2.1639234664     -0.0076795124     -0.3598008684
H       -1.3042448085     0.8497039380     0.8654656845
--------------------------------------------------------------

             Standard Nuclear Orientation (Angstroms)
    I     Atom           X                Y                Z
 ----------------------------------------------------------------
    1      C       1.2671197341     0.0045031161     0.2591488750
    2      C       0.0000000404    -0.0281392589    -0.5871456247
    3      H       1.3063819306    -0.9116841686     0.9421276655
    4      H       1.3042447402     0.8497031150     0.8654649827
    5      H       2.1639230162    -0.0076797564    -0.3598005169
    6      C      -1.2671196062     0.0045028640     0.2591488931
    7      H       0.0000001175    -0.7938977029    -1.1572752371
    8      H      -0.0000001356     0.9523516879    -1.3284161142
    9      H      -1.3063816228    -0.9116836558     0.9421272794
   10      H      -2.1639234664    -0.0076795124    -0.3598008684
   11      H      -1.3042448085     0.8497039380     0.8654656845
 ----------------------------------------------------------------

    7    -119.0726621372      5.19E-06 Convergence criterion met
    6    -119.1168415559      4.03E-06 Convergence criterion met
 Total energy in the final basis set = -119.11684156

                    Orbital Energies (a.u.)
 --------------------------------------------------------------

 Alpha MOs
 -- Occupied --
-10.2728 -10.2655 -10.2655  -0.8841  -0.7785  -0.6862  -0.5449  -0.5232
 -0.4880  -0.4595  -0.4317  -0.4195  -0.3953

                    Cartesian Multipole Moments
 -----------------------------------------------------------------
    Charge (ESU x 10^10)
                -0.0000
    Dipole Moment (Debye)
         X       0.0000      Y      -0.0458      Z      -0.0500
       Tot       0.0678
    Quadrupole Moments (Debye-Ang)
        XX     -22.1134     XY       0.0000     YY     -21.3759
        XZ      -0.0000     YZ       0.2567     ZZ     -21.9194

 Total job time:  49.36s(wall), 137.50s(cpu)
        *  Thank you very much for using Q-Chem.  Have a nice day.  *
