 Q-Chem 5.2 (devel), Q-Chem, Inc., Pleasanton, CA (2019)
 Q-Chem 5.2.2 for Intel X86 EM64T Linux

User input:
--------------------------------------------------------------
$rem
   JOBTYPE  sp
   EXCHANGE   omegaB97X-D
   BASIS   6-311+G(2df,2pd)
   max_scf_cycles   250
   geom_opt_max_cycles   1500
   basis2 6-31G*
   scf_algorithm rca_diis
   SYM_IGNORE  TRUE
   print_input   true
   geom_opt_dmax   80
   pop_mulliken false
   XC_GRID 000075000302
$end

$molecule
0 1
C       1.2626820715     0.1079624881     0.2604428011
C       0.0045665100     -0.0014462602     -0.5888079468
H       1.2776598989     -0.8345830906     0.8124606147
H       1.3303228550     0.9328828610     0.9709272556
H       2.1611895964     0.0347106387     -0.3535960019
C       -1.2627810145     -0.1096102809     0.2547139436
H       -0.3381330468     -0.8218536214     -1.2238238729
H       0.3253253791     0.8257316341     -1.2264965530
H       -1.3309406773     -0.9213257219     0.9809947366
H       -2.1545798747     -0.0367443270     -0.3681061687
H       -1.2753117582     0.8242763462     0.8223362106
--------------------------------------------------------------

             Standard Nuclear Orientation (Angstroms)
    I     Atom           X                Y                Z
 ----------------------------------------------------------------
    1      C       1.2626820715     0.1079624881     0.2604428011
    2      C       0.0045665100    -0.0014462602    -0.5888079468
    3      H       1.2776598989    -0.8345830906     0.8124606147
    4      H       1.3303228550     0.9328828610     0.9709272556
    5      H       2.1611895964     0.0347106387    -0.3535960019
    6      C      -1.2627810145    -0.1096102809     0.2547139436
    7      H      -0.3381330468    -0.8218536214    -1.2238238729
    8      H       0.3253253791     0.8257316341    -1.2264965530
    9      H      -1.3309406773    -0.9213257219     0.9809947366
   10      H      -2.1545798747    -0.0367443270    -0.3681061687
   11      H      -1.2753117582     0.8242763462     0.8223362106
 ----------------------------------------------------------------

    7    -119.0538473850      6.37E-06 Convergence criterion met
    6    -119.0985520845      4.44E-06 Convergence criterion met
 Total energy in the final basis set = -119.09855208

                    Orbital Energies (a.u.)
 --------------------------------------------------------------

 Alpha MOs
 -- Occupied --
-10.2734 -10.2680 -10.2679  -0.8869  -0.7835  -0.6773  -0.5515  -0.5272
 -0.5031  -0.4719  -0.4324  -0.4044  -0.3599

                    Cartesian Multipole Moments
 -----------------------------------------------------------------
    Charge (ESU x 10^10)
                -0.0000
    Dipole Moment (Debye)
         X       0.0016      Y       0.0043      Z      -0.0092
       Tot       0.0103
    Quadrupole Moments (Debye-Ang)
        XX     -21.9200     XY       0.8997     YY     -21.6293
        XZ       0.0286     YZ      -0.0032     ZZ     -22.0915

 Total job time:  48.95s(wall), 136.70s(cpu)
        *  Thank you very much for using Q-Chem.  Have a nice day.  *
