 Q-Chem 5.2 (devel), Q-Chem, Inc., Pleasanton, CA (2019)
 Q-Chem 5.2.2 for Intel X86 EM64T Linux

User input:
--------------------------------------------------------------
$rem
   JOBTYPE  sp
   EXCHANGE   omegaB97X-D
   BASIS   6-311+G(2df,2pd)
   max_scf_cycles   250
   geom_opt_max_cycles   1500
   basis2 6-31G*
   scf_algorithm rca_diis
   SYM_IGNORE  TRUE
   print_input   true
   geom_opt_dmax   80
   pop_mulliken false
   XC_GRID 000075000302
$end

$molecule
0 1
C       1.2658614381     -0.0546194788     0.2575378003
C       -0.0023937852     -0.0003625881     -0.5878281654
H       1.3176459704     -0.9007306666     0.9452931962
H       1.2909936299     0.8538345721     0.8636854952
H       2.1611763220     -0.0193989383     -0.3637444949
C       -1.2659586730     0.0541902204     0.2605899304
H       0.1729696635     -0.8605392089     -1.2382897614
H       -0.1659911851     0.8615605011     -1.2390431808
H       -1.2919090651     -0.8591526549     0.8588280957
H       -2.1645816568     0.0188608313     -0.3563803697
H       -1.3178127192     0.9063580768     0.9403964734
--------------------------------------------------------------

             Standard Nuclear Orientation (Angstroms)
    I     Atom           X                Y                Z
 ----------------------------------------------------------------
    1      C       1.2658614381    -0.0546194788     0.2575378003
    2      C      -0.0023937852    -0.0003625881    -0.5878281654
    3      H       1.3176459704    -0.9007306666     0.9452931962
    4      H       1.2909936299     0.8538345721     0.8636854952
    5      H       2.1611763220    -0.0193989383    -0.3637444949
    6      C      -1.2659586730     0.0541902204     0.2605899304
    7      H       0.1729696635    -0.8605392089    -1.2382897614
    8      H      -0.1659911851     0.8615605011    -1.2390431808
    9      H      -1.2919090651    -0.8591526549     0.8588280957
   10      H      -2.1645816568     0.0188608313    -0.3563803697
   11      H      -1.3178127192     0.9063580768     0.9403964734
 ----------------------------------------------------------------

    7    -119.0906740986      4.98E-06 Convergence criterion met
    6    -119.1340307518      4.00E-06 Convergence criterion met
 Total energy in the final basis set = -119.13403075

                    Orbital Energies (a.u.)
 --------------------------------------------------------------

 Alpha MOs
 -- Occupied --
-10.2739 -10.2659 -10.2657  -0.8826  -0.7787  -0.6776  -0.5471  -0.5249
 -0.4889  -0.4661  -0.4271  -0.4140  -0.3894

                    Cartesian Multipole Moments
 -----------------------------------------------------------------
    Charge (ESU x 10^10)
                -0.0000
    Dipole Moment (Debye)
         X      -0.0033      Y       0.0010      Z      -0.0671
       Tot       0.0672
    Quadrupole Moments (Debye-Ang)
        XX     -22.1061     XY      -0.4752     YY     -21.4311
        XZ      -0.0168     YZ      -0.0008     ZZ     -21.9041

 Total job time:  50.88s(wall), 139.13s(cpu)
        *  Thank you very much for using Q-Chem.  Have a nice day.  *
