 Q-Chem 5.2 (devel), Q-Chem, Inc., Pleasanton, CA (2019)
 Q-Chem 5.2.2 for Intel X86 EM64T Linux

User input:
--------------------------------------------------------------
$rem
   JOBTYPE  sp
   EXCHANGE   omegaB97X-D
   BASIS   6-311+G(2df,2pd)
   max_scf_cycles   250
   geom_opt_max_cycles   1500
   basis2 6-31G*
   scf_algorithm rca_diis
   SYM_IGNORE  TRUE
   print_input   true
   geom_opt_dmax   80
   pop_mulliken false
   XC_GRID 000075000302
$end

$molecule
0 1
C       1.2669170489     -0.0428600236     0.2608409356
C       0.0000009642     -0.0404001294     -0.5861409052
H       1.3022038214     -0.8409865205     0.8512125913
H       1.3079553359     0.9176848961     0.9554761053
H       2.1683005404     -0.0336253567     -0.3616047981
C       -1.2669105631     -0.0428611000     0.2608475471
H       0.0000002635     -0.8547674557     -1.2028648610
H       -0.0000004212     0.8947396736     -1.2817888451
H       -1.3021960245     -0.8409736303     0.8512074374
H       -2.1683223117     -0.0336257967     -0.3616149830
H       -1.3079487144     0.9176761093     0.9554747947
--------------------------------------------------------------

             Standard Nuclear Orientation (Angstroms)
    I     Atom           X                Y                Z
 ----------------------------------------------------------------
    1      C       1.2669170489    -0.0428600236     0.2608409356
    2      C       0.0000009642    -0.0404001294    -0.5861409052
    3      H       1.3022038214    -0.8409865205     0.8512125913
    4      H       1.3079553359     0.9176848961     0.9554761053
    5      H       2.1683005404    -0.0336253567    -0.3616047981
    6      C      -1.2669105631    -0.0428611000     0.2608475471
    7      H       0.0000002635    -0.8547674557    -1.2028648610
    8      H      -0.0000004212     0.8947396736    -1.2817888451
    9      H      -1.3021960245    -0.8409736303     0.8512074374
   10      H      -2.1683223117    -0.0336257967    -0.3616149830
   11      H      -1.3079487144     0.9176761093     0.9554747947
 ----------------------------------------------------------------

    7    -119.0727065679      4.70E-06 Convergence criterion met
    5    -119.1168294176      9.98E-06 Convergence criterion met
 Total energy in the final basis set = -119.11682942

                    Orbital Energies (a.u.)
 --------------------------------------------------------------

 Alpha MOs
 -- Occupied --
-10.2746 -10.2645 -10.2645  -0.8837  -0.7805  -0.6820  -0.5472  -0.5244
 -0.4939  -0.4540  -0.4184  -0.4175  -0.4064

                    Cartesian Multipole Moments
 -----------------------------------------------------------------
    Charge (ESU x 10^10)
                 0.0000
    Dipole Moment (Debye)
         X       0.0000      Y      -0.3007      Z      -0.0946
       Tot       0.3153
    Quadrupole Moments (Debye-Ang)
        XX     -22.1707     XY      -0.0000     YY     -21.3426
        XZ      -0.0000     YZ       0.0060     ZZ     -21.8758

 Total job time:  44.74s(wall), 124.19s(cpu)
        *  Thank you very much for using Q-Chem.  Have a nice day.  *
