 Q-Chem 5.2 (devel), Q-Chem, Inc., Pleasanton, CA (2019)
 Q-Chem 5.2.2 for Intel X86 EM64T Linux

User input:
--------------------------------------------------------------
$rem
   JOBTYPE  sp
   EXCHANGE   omegaB97X-D
   BASIS   6-311+G(2df,2pd)
   max_scf_cycles   250
   geom_opt_max_cycles   1500
   basis2 6-31G*
   scf_algorithm rca_diis
   SYM_IGNORE  TRUE
   print_input   true
   geom_opt_dmax   80
   pop_mulliken false
   XC_GRID 000075000302
$end

$molecule
0 1
C       1.2195442385     0.0032434407     0.1861878276
C       -0.1503712867     0.0002692710     -0.5742884504
H       1.3288562611     -0.8361738856     0.8825317579
H       1.3162903425     0.8391551411     0.8881711982
H       2.1655884526     -0.0047922540     -0.3607567965
C       -1.3247640256     -0.0027844231     0.3284276137
H       0.0993465156     -0.8437729330     -1.2215835173
H       0.1127593775     0.8409895192     -1.2205924449
H       -1.3045294161     -0.9211111171     0.9108259707
H       -2.1461162833     0.0067555336     -0.3852473495
H       -1.3166042367     0.9182223731     0.9073692096
--------------------------------------------------------------

             Standard Nuclear Orientation (Angstroms)
    I     Atom           X                Y                Z
 ----------------------------------------------------------------
    1      C       1.2195442385     0.0032434407     0.1861878276
    2      C      -0.1503712867     0.0002692710    -0.5742884504
    3      H       1.3288562611    -0.8361738856     0.8825317579
    4      H       1.3162903425     0.8391551411     0.8881711982
    5      H       2.1655884526    -0.0047922540    -0.3607567965
    6      C      -1.3247640256    -0.0027844231     0.3284276137
    7      H       0.0993465156    -0.8437729330    -1.2215835173
    8      H       0.1127593775     0.8409895192    -1.2205924449
    9      H      -1.3045294161    -0.9211111171     0.9108259707
   10      H      -2.1461162833     0.0067555336    -0.3852473495
   11      H      -1.3166042367     0.9182223731     0.9073692096
 ----------------------------------------------------------------

    7    -119.0747101637      5.68E-06 Convergence criterion met
    5    -119.1187540270      9.65E-06 Convergence criterion met
 Total energy in the final basis set = -119.11875403

                    Orbital Energies (a.u.)
 --------------------------------------------------------------

 Alpha MOs
 -- Occupied --
-10.2753 -10.2714 -10.2617  -0.8864  -0.7819  -0.6807  -0.5477  -0.5250
 -0.4928  -0.4655  -0.4299  -0.3974  -0.3939

                    Cartesian Multipole Moments
 -----------------------------------------------------------------
    Charge (ESU x 10^10)
                 0.0000
    Dipole Moment (Debye)
         X      -0.0379      Y      -0.0020      Z      -0.0585
       Tot       0.0697
    Quadrupole Moments (Debye-Ang)
        XX     -22.1396     XY      -0.0392     YY     -21.5221
        XZ      -0.3101     YZ       0.0032     ZZ     -21.9653

 Total job time:  44.53s(wall), 123.76s(cpu)
        *  Thank you very much for using Q-Chem.  Have a nice day.  *
