 Q-Chem 5.2 (devel), Q-Chem, Inc., Pleasanton, CA (2019)
 Q-Chem 5.2.2 for Intel X86 EM64T Linux

User input:
--------------------------------------------------------------
$rem
   JOBTYPE  sp
   EXCHANGE   omegaB97X-D
   BASIS   6-311+G(2df,2pd)
   max_scf_cycles   250
   geom_opt_max_cycles   1500
   basis2 6-31G*
   scf_algorithm rca_diis
   SYM_IGNORE  TRUE
   print_input   true
   geom_opt_dmax   80
   pop_mulliken false
   XC_GRID 000075000302
$end

$molecule
0 1
C       1.2787458640     -0.0025403735     0.2102556358
C       0.0000001939     -0.0019990697     -0.6245757564
H       1.3089907988     -0.9400723571     0.9089687525
H       1.3093603447     0.9449986831     0.9156552981
H       2.0183532192     -0.0018297210     -0.2937833580
C       -1.2787445402     -0.0025402609     0.2102570243
H       0.0000000111     -0.8479792777     -1.2566750453
H       -0.0000000904     0.8488658190     -1.2598947741
H       -1.3089892848     -0.9400702116     0.9089681956
H       -2.0183576776     -0.0018291218     -0.2937854341
H       -1.3093588994     0.9449965572     0.9156544803
--------------------------------------------------------------

             Standard Nuclear Orientation (Angstroms)
    I     Atom           X                Y                Z
 ----------------------------------------------------------------
    1      C       1.2787458640    -0.0025403735     0.2102556358
    2      C       0.0000001939    -0.0019990697    -0.6245757564
    3      H       1.3089907988    -0.9400723571     0.9089687525
    4      H       1.3093603447     0.9449986831     0.9156552981
    5      H       2.0183532192    -0.0018297210    -0.2937833580
    6      C      -1.2787445402    -0.0025402609     0.2102570243
    7      H       0.0000000111    -0.8479792777    -1.2566750453
    8      H      -0.0000000904     0.8488658190    -1.2598947741
    9      H      -1.3089892848    -0.9400702116     0.9089681956
   10      H      -2.0183576776    -0.0018291218    -0.2937854341
   11      H      -1.3093588994     0.9449965572     0.9156544803
 ----------------------------------------------------------------

    7    -119.0138223940      6.70E-06 Convergence criterion met
    5    -119.0613574029      8.57E-06 Convergence criterion met
 Total energy in the final basis set = -119.06135740

                    Orbital Energies (a.u.)
 --------------------------------------------------------------

 Alpha MOs
 -- Occupied --
-10.2684 -10.2595 -10.2595  -0.8857  -0.7926  -0.6871  -0.5525  -0.5410
 -0.4812  -0.4435  -0.4383  -0.4174  -0.4025

                    Cartesian Multipole Moments
 -----------------------------------------------------------------
    Charge (ESU x 10^10)
                 0.0000
    Dipole Moment (Debye)
         X       0.0000      Y      -0.0209      Z      -0.3898
       Tot       0.3903
    Quadrupole Moments (Debye-Ang)
        XX     -21.7505     XY      -0.0000     YY     -21.2795
        XZ      -0.0000     YZ      -0.0047     ZZ     -21.8644

 Total job time:  45.14s(wall), 124.96s(cpu)
        *  Thank you very much for using Q-Chem.  Have a nice day.  *
