 Q-Chem 5.2 (devel), Q-Chem, Inc., Pleasanton, CA (2019)
 Q-Chem 5.2.2 for Intel X86 EM64T Linux

User input:
--------------------------------------------------------------
$rem
   JOBTYPE  sp
   EXCHANGE   omegaB97X-D
   BASIS   6-311+G(2df,2pd)
   max_scf_cycles   250
   geom_opt_max_cycles   1500
   basis2 6-31G*
   scf_algorithm rca_diis
   SYM_IGNORE  TRUE
   print_input   true
   geom_opt_dmax   80
   pop_mulliken false
   XC_GRID 000075000302
$end

$molecule
0 1
C       1.2734817495     -0.0263763177     0.2307053765
C       -0.0000000055     -0.0153534028     -0.6145877131
H       1.2303115015     -0.8225663502     0.9771218799
H       1.3341162585     0.8005865489     0.9463591227
H       2.1330451495     0.0722995362     -0.4281414389
C       -1.2734816190     -0.0263758165     0.2307057600
H       -0.0000003171     -0.9062218475     -1.2472185614
H       0.0000001149     0.8736899121     -1.2492379856
H       -1.2303133186     -0.8225673838     0.9771208106
H       -2.1330453304     0.0722980548     -0.4281410452
H       -1.3341142438     0.8005877324     0.9463588134
--------------------------------------------------------------

             Standard Nuclear Orientation (Angstroms)
    I     Atom           X                Y                Z
 ----------------------------------------------------------------
    1      C       1.2734817495    -0.0263763177     0.2307053765
    2      C      -0.0000000055    -0.0153534028    -0.6145877131
    3      H       1.2303115015    -0.8225663502     0.9771218799
    4      H       1.3341162585     0.8005865489     0.9463591227
    5      H       2.1330451495     0.0722995362    -0.4281414389
    6      C      -1.2734816190    -0.0263758165     0.2307057600
    7      H      -0.0000003171    -0.9062218475    -1.2472185614
    8      H       0.0000001149     0.8736899121    -1.2492379856
    9      H      -1.2303133186    -0.8225673838     0.9771208106
   10      H      -2.1330453304     0.0722980548    -0.4281410452
   11      H      -1.3341142438     0.8005877324     0.9463588134
 ----------------------------------------------------------------

    7    -119.0891513985      4.92E-06 Convergence criterion met
    5    -119.1327683416      9.90E-06 Convergence criterion met
 Total energy in the final basis set = -119.13276834

                    Orbital Energies (a.u.)
 --------------------------------------------------------------

 Alpha MOs
 -- Occupied --
-10.2754 -10.2655 -10.2655  -0.8812  -0.7777  -0.6808  -0.5448  -0.5214
 -0.5059  -0.4466  -0.4283  -0.4088  -0.3991

                    Cartesian Multipole Moments
 -----------------------------------------------------------------
    Charge (ESU x 10^10)
                -0.0000
    Dipole Moment (Debye)
         X      -0.0000      Y       0.1169      Z       0.0125
       Tot       0.1175
    Quadrupole Moments (Debye-Ang)
        XX     -22.4872     XY       0.0000     YY     -22.0163
        XZ       0.0000     YZ      -0.2222     ZZ     -21.1246

 Total job time:  44.31s(wall), 122.81s(cpu)
        *  Thank you very much for using Q-Chem.  Have a nice day.  *
