 Q-Chem 5.2 (devel), Q-Chem, Inc., Pleasanton, CA (2019)
 Q-Chem 5.2.2 for Intel X86 EM64T Linux

User input:
--------------------------------------------------------------
$rem
   JOBTYPE  sp
   EXCHANGE   omegaB97X-D
   BASIS   6-311+G(2df,2pd)
   max_scf_cycles   250
   geom_opt_max_cycles   1500
   basis2 6-31G*
   scf_algorithm rca_diis
   SYM_IGNORE  TRUE
   print_input   true
   geom_opt_dmax   80
   pop_mulliken false
   XC_GRID 000075000302
$end

$molecule
0 1
C       1.2619769628     0.0199517084     0.2719303071
C       -0.0000002727     0.0217426132     -0.5551316403
H       1.3320070987     -0.8227346743     0.9672894702
H       1.2253493389     0.8381013428     0.9937532453
H       2.1358995549     -0.0600939553     -0.3693598064
C       -1.2619775907     0.0199540276     0.2719298486
H       -0.0000009454     -0.6717665533     -1.4086543268
H       0.0000011781     0.6995819664     -1.4223970468
H       -1.3320160384     -0.8227322500     0.9672889056
H       -2.1358985012     -0.0601028848     -0.3693608985
H       -1.2253408456     0.8380993253     0.9937569610
--------------------------------------------------------------

             Standard Nuclear Orientation (Angstroms)
    I     Atom           X                Y                Z
 ----------------------------------------------------------------
    1      C       1.2619769628     0.0199517084     0.2719303071
    2      C      -0.0000002727     0.0217426132    -0.5551316403
    3      H       1.3320070987    -0.8227346743     0.9672894702
    4      H       1.2253493389     0.8381013428     0.9937532453
    5      H       2.1358995549    -0.0600939553    -0.3693598064
    6      C      -1.2619775907     0.0199540276     0.2719298486
    7      H      -0.0000009454    -0.6717665533    -1.4086543268
    8      H       0.0000011781     0.6995819664    -1.4223970468
    9      H      -1.3320160384    -0.8227322500     0.9672889056
   10      H      -2.1358985012    -0.0601028848    -0.3693608985
   11      H      -1.2253408456     0.8380993253     0.9937569610
 ----------------------------------------------------------------

    7    -119.0693064800      6.68E-06 Convergence criterion met
    6    -119.1143986310      4.18E-06 Convergence criterion met
 Total energy in the final basis set = -119.11439863

                    Orbital Energies (a.u.)
 --------------------------------------------------------------

 Alpha MOs
 -- Occupied --
-10.2739 -10.2674 -10.2674  -0.8850  -0.7795  -0.6983  -0.5438  -0.5117
 -0.5008  -0.4560  -0.4527  -0.4149  -0.3633

                    Cartesian Multipole Moments
 -----------------------------------------------------------------
    Charge (ESU x 10^10)
                 0.0000
    Dipole Moment (Debye)
         X       0.0000      Y      -0.1090      Z      -0.1722
       Tot       0.2038
    Quadrupole Moments (Debye-Ang)
        XX     -22.1312     XY       0.0000     YY     -22.8246
        XZ      -0.0000     YZ       0.1490     ZZ     -20.3133

 Total job time:  48.28s(wall), 135.29s(cpu)
        *  Thank you very much for using Q-Chem.  Have a nice day.  *
