 Q-Chem 5.2 (devel), Q-Chem, Inc., Pleasanton, CA (2019)
 Q-Chem 5.2.2 for Intel X86 EM64T Linux

User input:
--------------------------------------------------------------
$rem
   JOBTYPE  sp
   EXCHANGE   omegaB97X-D
   BASIS   6-311+G(2df,2pd)
   max_scf_cycles   250
   geom_opt_max_cycles   1500
   basis2 6-31G*
   scf_algorithm rca_diis
   SYM_IGNORE  TRUE
   print_input   true
   geom_opt_dmax   80
   pop_mulliken false
   XC_GRID 000075000302
$end

$molecule
0 1
C       1.2667733304     -0.0642961808     0.2615907189
C       0.0000014527     -0.0606021162     -0.5855255545
H       1.3006174540     -0.8213801416     0.8246638611
H       1.3092757429     0.9364067085     0.9810581404
H       2.1701163310     -0.0504097084     -0.3623165518
C       -1.2667635818     -0.0642978686     0.2616006412
H       0.0000004265     -0.8453480958     -1.1825143450
H       -0.0000006489     0.9053060201     -1.3008923517
H       -1.3006057511     -0.8213608916     0.8246561385
H       -2.1701489746     -0.0504105256     -0.3623318134
H       -1.3092658419     0.9363934660     0.9810561352
--------------------------------------------------------------

             Standard Nuclear Orientation (Angstroms)
    I     Atom           X                Y                Z
 ----------------------------------------------------------------
    1      C       1.2667733304    -0.0642961808     0.2615907189
    2      C       0.0000014527    -0.0606021162    -0.5855255545
    3      H       1.3006174540    -0.8213801416     0.8246638611
    4      H       1.3092757429     0.9364067085     0.9810581404
    5      H       2.1701163310    -0.0504097084    -0.3623165518
    6      C      -1.2667635818    -0.0642978686     0.2616006412
    7      H       0.0000004265    -0.8453480958    -1.1825143450
    8      H      -0.0000006489     0.9053060201    -1.3008923517
    9      H      -1.3006057511    -0.8213608916     0.8246561385
   10      H      -2.1701489746    -0.0504105256    -0.3623318134
   11      H      -1.3092658419     0.9363934660     0.9810561352
 ----------------------------------------------------------------

    7    -119.0323964892      4.96E-06 Convergence criterion met
    5    -119.0781821160      9.83E-06 Convergence criterion met
 Total energy in the final basis set = -119.07818212

                    Orbital Energies (a.u.)
 --------------------------------------------------------------

 Alpha MOs
 -- Occupied --
-10.2748 -10.2640 -10.2640  -0.8868  -0.7847  -0.6873  -0.5488  -0.5251
 -0.5025  -0.4471  -0.4184  -0.4172  -0.4049

                    Cartesian Multipole Moments
 -----------------------------------------------------------------
    Charge (ESU x 10^10)
                -0.0000
    Dipole Moment (Debye)
         X       0.0000      Y      -0.4442      Z      -0.1127
       Tot       0.4583
    Quadrupole Moments (Debye-Ang)
        XX     -22.1614     XY      -0.0000     YY     -21.3153
        XZ      -0.0000     YZ       0.0098     ZZ     -21.9178

 Total job time:  44.30s(wall), 122.85s(cpu)
        *  Thank you very much for using Q-Chem.  Have a nice day.  *
