 Q-Chem 5.2 (devel), Q-Chem, Inc., Pleasanton, CA (2019)
 Q-Chem 5.2.2 for Intel X86 EM64T Linux

User input:
--------------------------------------------------------------
$rem
   JOBTYPE  sp
   EXCHANGE   omegaB97X-D
   BASIS   6-311+G(2df,2pd)
   max_scf_cycles   250
   geom_opt_max_cycles   1500
   basis2 6-31G*
   scf_algorithm rca_diis
   SYM_IGNORE  TRUE
   print_input   true
   geom_opt_dmax   80
   pop_mulliken false
   XC_GRID 000075000302
$end

$molecule
0 1
C       1.2013643267     0.0010222074     0.2028051392
C       0.1065855058     0.0000130526     -0.5835438161
H       1.2418459833     -0.8879272275     0.8317631617
H       1.2466332242     0.8876018749     0.8346498198
H       2.0733237199     0.0008186052     -0.4519078538
C       -1.3401248729     -0.0010844039     0.3095550208
H       0.2415664927     -0.8697076139     -1.2309381103
H       0.2385535144     0.8699546319     -1.2312626575
H       -1.3773009809     -0.8728084092     0.9695680616
H       -2.2599292892     -0.0009887770     -0.2763143196
H       -1.3725176847     0.8731067254     0.9666705733
--------------------------------------------------------------

             Standard Nuclear Orientation (Angstroms)
    I     Atom           X                Y                Z
 ----------------------------------------------------------------
    1      C       1.2013643267     0.0010222074     0.2028051392
    2      C       0.1065855058     0.0000130526    -0.5835438161
    3      H       1.2418459833    -0.8879272275     0.8317631617
    4      H       1.2466332242     0.8876018749     0.8346498198
    5      H       2.0733237199     0.0008186052    -0.4519078538
    6      C      -1.3401248729    -0.0010844039     0.3095550208
    7      H       0.2415664927    -0.8697076139    -1.2309381103
    8      H       0.2385535144     0.8699546319    -1.2312626575
    9      H      -1.3773009809    -0.8728084092     0.9695680616
   10      H      -2.2599292892    -0.0009887770    -0.2763143196
   11      H      -1.3725176847     0.8731067254     0.9666705733
 ----------------------------------------------------------------

    7    -119.0600865862      5.81E-06 Convergence criterion met
    6    -119.1048227753      4.94E-06 Convergence criterion met
 Total energy in the final basis set = -119.10482278

                    Orbital Energies (a.u.)
 --------------------------------------------------------------

 Alpha MOs
 -- Occupied --
-10.2770 -10.2725 -10.2515  -0.9036  -0.7752  -0.6711  -0.5576  -0.5341
 -0.4807  -0.4643  -0.4425  -0.3986  -0.3898

                    Cartesian Multipole Moments
 -----------------------------------------------------------------
    Charge (ESU x 10^10)
                -0.0000
    Dipole Moment (Debye)
         X       0.1237      Y       0.0003      Z      -0.0786
       Tot       0.1465
    Quadrupole Moments (Debye-Ang)
        XX     -22.0196     XY       0.0095     YY     -21.3629
        XZ      -0.8310     YZ       0.0004     ZZ     -21.9028

 Total job time:  48.90s(wall), 136.46s(cpu)
        *  Thank you very much for using Q-Chem.  Have a nice day.  *
