 Q-Chem 5.2 (devel), Q-Chem, Inc., Pleasanton, CA (2019)
 Q-Chem 5.2.2 for Intel X86 EM64T Linux

User input:
--------------------------------------------------------------
$rem
   JOBTYPE  sp
   EXCHANGE   omegaB97X-D
   BASIS   6-311+G(2df,2pd)
   max_scf_cycles   250
   geom_opt_max_cycles   1500
   basis2 6-31G*
   scf_algorithm rca_diis
   SYM_IGNORE  TRUE
   print_input   true
   geom_opt_dmax   80
   pop_mulliken false
   XC_GRID 000075000302
$end

$molecule
0 1
C       1.4237499683     -0.0001624543     0.2622787416
C       -0.0000000537     0.0021997374     -0.3332171419
H       1.6685267024     -0.8847663874     0.8518836886
H       1.6721681439     0.8824140208     0.8538101720
H       2.0772418098     0.0029620034     -0.6135963131
C       -1.4237501802     -0.0001626454     0.2622784394
H       0.0000005804     -0.8559684519     -1.0128355476
H       -0.0000002919     0.8528743632     -1.0216547140
H       -1.6685268469     -0.8847662454     0.8518838955
H       -2.0772422847     0.0029628120     -0.6135962319
H       -1.6721676079     0.8824139137     0.8538100302
--------------------------------------------------------------

             Standard Nuclear Orientation (Angstroms)
    I     Atom           X                Y                Z
 ----------------------------------------------------------------
    1      C       1.4237499683    -0.0001624543     0.2622787416
    2      C      -0.0000000537     0.0021997374    -0.3332171419
    3      H       1.6685267024    -0.8847663874     0.8518836886
    4      H       1.6721681439     0.8824140208     0.8538101720
    5      H       2.0772418098     0.0029620034    -0.6135963131
    6      C      -1.4237501802    -0.0001626454     0.2622784394
    7      H       0.0000005804    -0.8559684519    -1.0128355476
    8      H      -0.0000002919     0.8528743632    -1.0216547140
    9      H      -1.6685268469    -0.8847662454     0.8518838955
   10      H      -2.0772422847     0.0029628120    -0.6135962319
   11      H      -1.6721676079     0.8824139137     0.8538100302
 ----------------------------------------------------------------

    7    -119.0864749488      4.11E-06 Convergence criterion met
    6    -119.1295128621      4.19E-06 Convergence criterion met
 Total energy in the final basis set = -119.12951286

                    Orbital Energies (a.u.)
 --------------------------------------------------------------

 Alpha MOs
 -- Occupied --
-10.2771 -10.2701 -10.2701  -0.8734  -0.7884  -0.6732  -0.5383  -0.5109
 -0.4958  -0.4728  -0.4276  -0.4005  -0.3990

                    Cartesian Multipole Moments
 -----------------------------------------------------------------
    Charge (ESU x 10^10)
                 0.0000
    Dipole Moment (Debye)
         X       0.0000      Y      -0.0018      Z      -0.1753
       Tot       0.1753
    Quadrupole Moments (Debye-Ang)
        XX     -21.9234     XY      -0.0000     YY     -21.4599
        XZ       0.0000     YZ      -0.0156     ZZ     -21.7595

 Total job time:  48.13s(wall), 134.26s(cpu)
        *  Thank you very much for using Q-Chem.  Have a nice day.  *
