 Q-Chem 5.2 (devel), Q-Chem, Inc., Pleasanton, CA (2019)
 Q-Chem 5.2.2 for Intel X86 EM64T Linux

User input:
--------------------------------------------------------------
$rem
   JOBTYPE  sp
   EXCHANGE   omegaB97X-D
   BASIS   6-311+G(2df,2pd)
   max_scf_cycles   250
   geom_opt_max_cycles   1500
   basis2 6-31G*
   scf_algorithm rca_diis
   SYM_IGNORE  TRUE
   print_input   true
   geom_opt_dmax   80
   pop_mulliken false
   XC_GRID 000075000302
$end

$molecule
0 1
C       1.2701960749     0.0587361201     0.2050423322
C       0.0000000194     0.0550100702     -0.6720290355
H       1.4218209099     -0.7724230896     0.9069690597
H       1.1296316694     0.8150569082     0.9769743046
H       2.1062224302     -0.1756344202     -0.4500381147
C       -1.2701963555     0.0587368526     0.2050421660
H       -0.0000007327     -0.9386372567     -1.1119890974
H       0.0000001521     1.0321584221     -1.1528312081
H       -1.4218233892     -0.7724228717     0.9069679944
H       -2.1062220291     -0.1756367912     -0.4500377855
H       -1.1296288100     0.8150567222     0.9769744032
--------------------------------------------------------------

             Standard Nuclear Orientation (Angstroms)
    I     Atom           X                Y                Z
 ----------------------------------------------------------------
    1      C       1.2701960749     0.0587361201     0.2050423322
    2      C       0.0000000194     0.0550100702    -0.6720290355
    3      H       1.4218209099    -0.7724230896     0.9069690597
    4      H       1.1296316694     0.8150569082     0.9769743046
    5      H       2.1062224302    -0.1756344202    -0.4500381147
    6      C      -1.2701963555     0.0587368526     0.2050421660
    7      H      -0.0000007327    -0.9386372567    -1.1119890974
    8      H       0.0000001521     1.0321584221    -1.1528312081
    9      H      -1.4218233892    -0.7724228717     0.9069679944
   10      H      -2.1062220291    -0.1756367912    -0.4500377855
   11      H      -1.1296288100     0.8150567222     0.9769744032
 ----------------------------------------------------------------

    7    -119.0461819228      7.92E-06 Convergence criterion met
    5    -119.0917454324      9.84E-06 Convergence criterion met
 Total energy in the final basis set = -119.09174543

                    Orbital Energies (a.u.)
 --------------------------------------------------------------

 Alpha MOs
 -- Occupied --
-10.2783 -10.2652 -10.2652  -0.8834  -0.7783  -0.6787  -0.5701  -0.5183
 -0.5096  -0.4585  -0.4095  -0.3996  -0.3811

                    Cartesian Multipole Moments
 -----------------------------------------------------------------
    Charge (ESU x 10^10)
                -0.0000
    Dipole Moment (Debye)
         X       0.0000      Y      -0.3167      Z       0.1029
       Tot       0.3330
    Quadrupole Moments (Debye-Ang)
        XX     -22.9332     XY       0.0000     YY     -21.6464
        XZ       0.0000     YZ       0.3984     ZZ     -21.7435

 Total job time:  45.03s(wall), 125.00s(cpu)
        *  Thank you very much for using Q-Chem.  Have a nice day.  *
