 Q-Chem 5.2 (devel), Q-Chem, Inc., Pleasanton, CA (2019)
 Q-Chem 5.2.2 for Intel X86 EM64T Linux

User input:
--------------------------------------------------------------
$rem
   JOBTYPE  sp
   EXCHANGE   omegaB97X-D
   BASIS   6-311+G(2df,2pd)
   max_scf_cycles   250
   geom_opt_max_cycles   1500
   basis2 6-31G*
   scf_algorithm rca_diis
   SYM_IGNORE  TRUE
   print_input   true
   geom_opt_dmax   80
   pop_mulliken false
   XC_GRID 000075000302
$end

$molecule
0 1
C       1.2948537411     0.0006145256     0.2648169063
C       0.0023479038     0.0000261299     -0.5862919328
H       1.2703345118     -0.8933415616     0.8891224028
H       1.2668889642     0.8937091223     0.8900582402
H       2.1577822207     -0.0017225702     -0.3994430474
C       -1.2400229632     -0.0005036284     0.2551970979
H       0.0462212257     -0.8731074445     -1.2416312202
H       0.0475961289     0.8730765699     -1.2416484879
H       -1.3371456561     -0.8658075552     0.9159949326
H       -2.1681361203     0.0017677752     -0.3200920558
H       -1.3407200173     0.8652893029     0.9149621831
--------------------------------------------------------------

             Standard Nuclear Orientation (Angstroms)
    I     Atom           X                Y                Z
 ----------------------------------------------------------------
    1      C       1.2948537411     0.0006145256     0.2648169063
    2      C       0.0023479038     0.0000261299    -0.5862919328
    3      H       1.2703345118    -0.8933415616     0.8891224028
    4      H       1.2668889642     0.8937091223     0.8900582402
    5      H       2.1577822207    -0.0017225702    -0.3994430474
    6      C      -1.2400229632    -0.0005036284     0.2551970979
    7      H       0.0462212257    -0.8731074445    -1.2416312202
    8      H       0.0475961289     0.8730765699    -1.2416484879
    9      H      -1.3371456561    -0.8658075552     0.9159949326
   10      H      -2.1681361203     0.0017677752    -0.3200920558
   11      H      -1.3407200173     0.8652893029     0.9149621831
 ----------------------------------------------------------------

    7    -119.0997287091      4.72E-06 Convergence criterion met
    6    -119.1428351700      4.16E-06 Convergence criterion met
 Total energy in the final basis set = -119.14283517

                    Orbital Energies (a.u.)
 --------------------------------------------------------------

 Alpha MOs
 -- Occupied --
-10.2741 -10.2658 -10.2647  -0.8817  -0.7776  -0.6779  -0.5460  -0.5264
 -0.4810  -0.4635  -0.4304  -0.4071  -0.4054

                    Cartesian Multipole Moments
 -----------------------------------------------------------------
    Charge (ESU x 10^10)
                 0.0000
    Dipole Moment (Debye)
         X      -0.0619      Y       0.0001      Z      -0.0908
       Tot       0.1099
    Quadrupole Moments (Debye-Ang)
        XX     -22.1728     XY      -0.0139     YY     -21.3768
        XZ      -0.4947     YZ      -0.0001     ZZ     -21.8624

 Total job time:  48.65s(wall), 135.85s(cpu)
        *  Thank you very much for using Q-Chem.  Have a nice day.  *
