 Q-Chem 5.2 (devel), Q-Chem, Inc., Pleasanton, CA (2019)
 Q-Chem 5.2.2 for Intel X86 EM64T Linux

User input:
--------------------------------------------------------------
$rem
   JOBTYPE  sp
   EXCHANGE   omegaB97X-D
   BASIS   6-311+G(2df,2pd)
   max_scf_cycles   250
   geom_opt_max_cycles   1500
   basis2 6-31G*
   scf_algorithm rca_diis
   SYM_IGNORE  TRUE
   print_input   true
   geom_opt_dmax   80
   pop_mulliken false
   XC_GRID 000075000302
$end

$molecule
0 1
C       1.1591782772     -0.0012981735     0.2462881657
C       -0.0131892661     0.0004513565     -0.5724821744
H       1.4163175124     -0.8104737742     0.9405204264
H       1.4310230573     0.8073158047     0.9361068695
H       2.1612595946     0.0073497597     -0.1985105642
C       -1.3823694589     0.0030788430     0.2898671102
H       -0.1869468091     -0.8618094717     -1.2206112899
H       -0.1924537675     0.8614190300     -1.2208306001
H       -1.1475354406     -0.9130141551     0.8257595857
H       -2.1109030037     -0.0067353091     -0.5134827190
H       -1.1343807563     0.9137167557     0.8284202089
--------------------------------------------------------------

             Standard Nuclear Orientation (Angstroms)
    I     Atom           X                Y                Z
 ----------------------------------------------------------------
    1      C       1.1591782772    -0.0012981735     0.2462881657
    2      C      -0.0131892661     0.0004513565    -0.5724821744
    3      H       1.4163175124    -0.8104737742     0.9405204264
    4      H       1.4310230573     0.8073158047     0.9361068695
    5      H       2.1612595946     0.0073497597    -0.1985105642
    6      C      -1.3823694589     0.0030788430     0.2898671102
    7      H      -0.1869468091    -0.8618094717    -1.2206112899
    8      H      -0.1924537675     0.8614190300    -1.2208306001
    9      H      -1.1475354406    -0.9130141551     0.8257595857
   10      H      -2.1109030037    -0.0067353091    -0.5134827190
   11      H      -1.1343807563     0.9137167557     0.8284202089
 ----------------------------------------------------------------

    7    -119.0472998268      6.47E-06 Convergence criterion met
    6    -119.0934345530      5.48E-06 Convergence criterion met
 Total energy in the final basis set = -119.09343455

                    Orbital Energies (a.u.)
 --------------------------------------------------------------

 Alpha MOs
 -- Occupied --
-10.2763 -10.2683 -10.2662  -0.8910  -0.7859  -0.6809  -0.5510  -0.5507
 -0.4724  -0.4609  -0.4560  -0.4010  -0.3660

                    Cartesian Multipole Moments
 -----------------------------------------------------------------
    Charge (ESU x 10^10)
                 0.0000
    Dipole Moment (Debye)
         X       0.3563      Y       0.0010      Z      -0.1896
       Tot       0.4036
    Quadrupole Moments (Debye-Ang)
        XX     -22.3234     XY       0.0568     YY     -21.5963
        XZ       2.0362     YZ      -0.0029     ZZ     -22.1695

 Total job time:  48.88s(wall), 136.20s(cpu)
        *  Thank you very much for using Q-Chem.  Have a nice day.  *
