 Q-Chem 5.2 (devel), Q-Chem, Inc., Pleasanton, CA (2019)
 Q-Chem 5.2.2 for Intel X86 EM64T Linux

User input:
--------------------------------------------------------------
$rem
   JOBTYPE  sp
   EXCHANGE   omegaB97X-D
   BASIS   6-311+G(2df,2pd)
   max_scf_cycles   250
   geom_opt_max_cycles   1500
   basis2 6-31G*
   scf_algorithm rca_diis
   SYM_IGNORE  TRUE
   print_input   true
   geom_opt_dmax   80
   pop_mulliken false
   XC_GRID 000075000302
$end

$molecule
0 1
C       1.2302559090     0.0000430165     0.2593338133
C       0.0000000115     -0.0005526030     -0.6336872531
H       1.2248854103     -0.8793719582     0.9067875997
H       1.2240511916     0.8797699763     0.9062803278
H       2.1660381024     -0.0003781871     -0.2996077629
C       -1.2302558513     0.0000430604     0.2593338679
H       -0.0000000913     -0.8762275642     -1.2864013475
H       -0.0000000290     0.8766544251     -1.2844543846
H       -1.2248853915     -0.8793719664     0.9067875575
H       -2.1660380238     -0.0003775664     -0.2996078010
H       -1.2240512986     0.8797700330     0.9062804017
--------------------------------------------------------------

             Standard Nuclear Orientation (Angstroms)
    I     Atom           X                Y                Z
 ----------------------------------------------------------------
    1      C       1.2302559090     0.0000430165     0.2593338133
    2      C       0.0000000115    -0.0005526030    -0.6336872531
    3      H       1.2248854103    -0.8793719582     0.9067875997
    4      H       1.2240511916     0.8797699763     0.9062803278
    5      H       2.1660381024    -0.0003781871    -0.2996077629
    6      C      -1.2302558513     0.0000430604     0.2593338679
    7      H      -0.0000000913    -0.8762275642    -1.2864013475
    8      H      -0.0000000290     0.8766544251    -1.2844543846
    9      H      -1.2248853915    -0.8793719664     0.9067875575
   10      H      -2.1660380238    -0.0003775664    -0.2996078010
   11      H      -1.2240512986     0.8797700330     0.9062804017
 ----------------------------------------------------------------

    7    -119.1021421571      4.65E-06 Convergence criterion met
    5    -119.1451345863      9.43E-06 Convergence criterion met
 Total energy in the final basis set = -119.14513459

                    Orbital Energies (a.u.)
 --------------------------------------------------------------

 Alpha MOs
 -- Occupied --
-10.2740 -10.2643 -10.2643  -0.8846  -0.7738  -0.6795  -0.5482  -0.5277
 -0.4787  -0.4603  -0.4222  -0.4155  -0.4097

                    Cartesian Multipole Moments
 -----------------------------------------------------------------
    Charge (ESU x 10^10)
                -0.0000
    Dipole Moment (Debye)
         X      -0.0000      Y       0.0000      Z      -0.0745
       Tot       0.0745
    Quadrupole Moments (Debye-Ang)
        XX     -22.2425     XY      -0.0000     YY     -21.3423
        XZ       0.0000     YZ       0.0030     ZZ     -21.8509

 Total job time:  42.56s(wall), 117.53s(cpu)
        *  Thank you very much for using Q-Chem.  Have a nice day.  *
