 Q-Chem 5.2 (devel), Q-Chem, Inc., Pleasanton, CA (2019)
 Q-Chem 5.2.2 for Intel X86 EM64T Linux

User input:
--------------------------------------------------------------
$rem
   JOBTYPE  sp
   EXCHANGE   omegaB97X-D
   BASIS   6-311+G(2df,2pd)
   max_scf_cycles   250
   geom_opt_max_cycles   1500
   basis2 6-31G*
   scf_algorithm rca_diis
   SYM_IGNORE  TRUE
   print_input   true
   geom_opt_dmax   80
   pop_mulliken false
   XC_GRID 000075000302
$end

$molecule
0 1
C       1.2677863559     0.0000093130     0.2641693512
C       0.0000000719     -0.0000325302     -0.5748174954
H       1.3055228064     -0.8829107444     0.9106970410
H       1.3055365000     0.8827706782     0.9105308210
H       2.1566302259     0.0000163450     -0.3484088049
C       -1.2677861719     0.0000094109     0.2641692568
H       0.0000001209     -0.9316561455     -1.2789012401
H       -0.0000000004     0.9319174018     -1.2792133638
H       -1.3055227204     -0.8829115344     0.9106976427
H       -2.1566308171     0.0000169661     -0.3484094192
H       -1.3055364317     0.8827715055     0.9105312296
--------------------------------------------------------------

             Standard Nuclear Orientation (Angstroms)
    I     Atom           X                Y                Z
 ----------------------------------------------------------------
    1      C       1.2677863559     0.0000093130     0.2641693512
    2      C       0.0000000719    -0.0000325302    -0.5748174954
    3      H       1.3055228064    -0.8829107444     0.9106970410
    4      H       1.3055365000     0.8827706782     0.9105308210
    5      H       2.1566302259     0.0000163450    -0.3484088049
    6      C      -1.2677861719     0.0000094109     0.2641692568
    7      H       0.0000001209    -0.9316561455    -1.2789012401
    8      H      -0.0000000004     0.9319174018    -1.2792133638
    9      H      -1.3055227204    -0.8829115344     0.9106976427
   10      H      -2.1566308171     0.0000169661    -0.3484094192
   11      H      -1.3055364317     0.8827715055     0.9105312296
 ----------------------------------------------------------------

    7    -119.0976840579      4.44E-06 Convergence criterion met
    6    -119.1400396045      4.34E-06 Convergence criterion met
 Total energy in the final basis set = -119.14003960

                    Orbital Energies (a.u.)
 --------------------------------------------------------------

 Alpha MOs
 -- Occupied --
-10.2898 -10.2659 -10.2659  -0.8791  -0.7795  -0.6675  -0.5401  -0.5266
 -0.4838  -0.4640  -0.4228  -0.4142  -0.3986

                    Cartesian Multipole Moments
 -----------------------------------------------------------------
    Charge (ESU x 10^10)
                 0.0000
    Dipole Moment (Debye)
         X       0.0000      Y      -0.0001      Z       0.0125
       Tot       0.0125
    Quadrupole Moments (Debye-Ang)
        XX     -22.0887     XY      -0.0000     YY     -21.4753
        XZ       0.0000     YZ       0.0004     ZZ     -22.0886

 Total job time:  48.42s(wall), 134.75s(cpu)
        *  Thank you very much for using Q-Chem.  Have a nice day.  *
