 Q-Chem 5.2 (devel), Q-Chem, Inc., Pleasanton, CA (2019)
 Q-Chem 5.2.2 for Intel X86 EM64T Linux

User input:
--------------------------------------------------------------
$rem
   JOBTYPE  sp
   EXCHANGE   omegaB97X-D
   BASIS   6-311+G(2df,2pd)
   max_scf_cycles   250
   geom_opt_max_cycles   1500
   basis2 6-31G*
   scf_algorithm rca_diis
   SYM_IGNORE  TRUE
   print_input   true
   geom_opt_dmax   80
   pop_mulliken false
   XC_GRID 000075000302
$end

$molecule
0 1
C       1.1606465404     0.0420078481     0.4001855786
C       -0.0682809210     -0.0013675463     -0.5919968688
H       1.3511337724     -0.8954543857     0.9262651401
H       1.4834904570     0.8608344940     1.0416401720
H       1.8117453385     -0.0025162622     -0.4778898401
C       -1.3607419963     -0.0352919071     0.1033704988
H       0.2653123239     -0.8449617228     -1.2009478030
H       0.0736265895     0.8712465012     -1.2339966472
H       -1.2092155090     -0.8241351043     0.8431242734
H       -2.4105098378     -0.0084613159     -0.1770037591
H       -1.0972068181     0.8381000669     0.7082942742
--------------------------------------------------------------

             Standard Nuclear Orientation (Angstroms)
    I     Atom           X                Y                Z
 ----------------------------------------------------------------
    1      C       1.1606465404     0.0420078481     0.4001855786
    2      C      -0.0682809210    -0.0013675463    -0.5919968688
    3      H       1.3511337724    -0.8954543857     0.9262651401
    4      H       1.4834904570     0.8608344940     1.0416401720
    5      H       1.8117453385    -0.0025162622    -0.4778898401
    6      C      -1.3607419963    -0.0352919071     0.1033704988
    7      H       0.2653123239    -0.8449617228    -1.2009478030
    8      H       0.0736265895     0.8712465012    -1.2339966472
    9      H      -1.2092155090    -0.8241351043     0.8431242734
   10      H      -2.4105098378    -0.0084613159    -0.1770037591
   11      H      -1.0972068181     0.8381000669     0.7082942742
 ----------------------------------------------------------------

    7    -119.0489088874      5.35E-06 Convergence criterion met
    6    -119.0938422859      4.63E-06 Convergence criterion met
 Total energy in the final basis set = -119.09384229

                    Orbital Energies (a.u.)
 --------------------------------------------------------------

 Alpha MOs
 -- Occupied --
-10.2852 -10.2688 -10.2620  -0.8947  -0.7841  -0.6798  -0.5521  -0.5394
 -0.4898  -0.4606  -0.4145  -0.4003  -0.3957

                    Cartesian Multipole Moments
 -----------------------------------------------------------------
    Charge (ESU x 10^10)
                -0.0000
    Dipole Moment (Debye)
         X       0.1087      Y       0.0378      Z      -0.0666
       Tot       0.1329
    Quadrupole Moments (Debye-Ang)
        XX     -21.9729     XY       0.0087     YY     -21.6696
        XZ       0.1014     YZ      -0.0613     ZZ     -22.0417

 Total job time:  49.94s(wall), 139.55s(cpu)
        *  Thank you very much for using Q-Chem.  Have a nice day.  *
