 Q-Chem 5.2 (devel), Q-Chem, Inc., Pleasanton, CA (2019)
 Q-Chem 5.2.2 for Intel X86 EM64T Linux

User input:
--------------------------------------------------------------
$rem
   JOBTYPE  sp
   EXCHANGE   omegaB97X-D
   BASIS   6-311+G(2df,2pd)
   max_scf_cycles   250
   geom_opt_max_cycles   1500
   basis2 6-31G*
   scf_algorithm rca_diis
   SYM_IGNORE  TRUE
   print_input   true
   geom_opt_dmax   80
   pop_mulliken false
   XC_GRID 000075000302
$end

$molecule
0 1
C       1.2509881131     -0.0310357287     0.2705434033
C       -0.0168987342     0.0029014599     -0.5893299131
H       1.1564431315     -0.9276756730     0.8740407306
H       1.4516153872     0.9103300609     0.7940640417
H       2.1716680003     0.1596540950     -0.2872669949
C       -1.2824378653     0.0387622773     0.2441173831
H       -0.0222161523     -0.8719154772     -1.2438705008
H       0.0496114428     0.8739356819     -1.2455555022
H       -1.4549057668     -0.8061895177     0.9250329585
H       -2.1364217748     -0.1640676197     -0.3982723141
H       -1.1674458421     0.8153011072     0.9975417269
--------------------------------------------------------------

             Standard Nuclear Orientation (Angstroms)
    I     Atom           X                Y                Z
 ----------------------------------------------------------------
    1      C       1.2509881131    -0.0310357287     0.2705434033
    2      C      -0.0168987342     0.0029014599    -0.5893299131
    3      H       1.1564431315    -0.9276756730     0.8740407306
    4      H       1.4516153872     0.9103300609     0.7940640417
    5      H       2.1716680003     0.1596540950    -0.2872669949
    6      C      -1.2824378653     0.0387622773     0.2441173831
    7      H      -0.0222161523    -0.8719154772    -1.2438705008
    8      H       0.0496114428     0.8739356819    -1.2455555022
    9      H      -1.4549057668    -0.8061895177     0.9250329585
   10      H      -2.1364217748    -0.1640676197    -0.3982723141
   11      H      -1.1674458421     0.8153011072     0.9975417269
 ----------------------------------------------------------------

    7    -119.0705293443      6.22E-06 Convergence criterion met
    6    -119.1152317850      4.05E-06 Convergence criterion met
 Total energy in the final basis set = -119.11523178

                    Orbital Energies (a.u.)
 --------------------------------------------------------------

 Alpha MOs
 -- Occupied --
-10.2745 -10.2659 -10.2657  -0.8829  -0.7810  -0.6810  -0.5539  -0.5409
 -0.4825  -0.4485  -0.4329  -0.4092  -0.3833

                    Cartesian Multipole Moments
 -----------------------------------------------------------------
    Charge (ESU x 10^10)
                 0.0000
    Dipole Moment (Debye)
         X       0.0646      Y      -0.0165      Z      -0.0604
       Tot       0.0900
    Quadrupole Moments (Debye-Ang)
        XX     -22.1104     XY       1.4636     YY     -21.4700
        XZ      -0.0591     YZ      -0.0253     ZZ     -21.9701

 Total job time:  49.29s(wall), 137.20s(cpu)
        *  Thank you very much for using Q-Chem.  Have a nice day.  *
