 Q-Chem 5.2 (devel), Q-Chem, Inc., Pleasanton, CA (2019)
 Q-Chem 5.2.2 for Intel X86 EM64T Linux

User input:
--------------------------------------------------------------
$rem
   JOBTYPE  sp
   EXCHANGE   omegaB97X-D
   BASIS   6-311+G(2df,2pd)
   max_scf_cycles   250
   geom_opt_max_cycles   1500
   basis2 6-31G*
   scf_algorithm rca_diis
   SYM_IGNORE  TRUE
   print_input   true
   geom_opt_dmax   80
   pop_mulliken false
   XC_GRID 000075000302
$end

$molecule
0 1
C       1.2589466590     -0.0378872047     0.2954694885
C       -0.0000000245     -0.0371455087     -0.5371862768
H       1.2099562149     -0.9434995524     0.8945868160
H       1.4304827125     0.9008784678     0.8291945860
H       2.1846073724     0.1272122457     -0.2609641945
C       -1.2589465777     -0.0378875330     0.2954694538
H       0.0000005613     -0.7961412158     -1.3292533283
H       -0.0000001772     0.7398770347     -1.3090894438
H       -1.2099545412     -0.9434991788     0.8945875050
H       -2.1846071388     0.1272151388     -0.2609637528
H       -1.4304851212     0.9008779725     0.8291941659
--------------------------------------------------------------

             Standard Nuclear Orientation (Angstroms)
    I     Atom           X                Y                Z
 ----------------------------------------------------------------
    1      C       1.2589466590    -0.0378872047     0.2954694885
    2      C      -0.0000000245    -0.0371455087    -0.5371862768
    3      H       1.2099562149    -0.9434995524     0.8945868160
    4      H       1.4304827125     0.9008784678     0.8291945860
    5      H       2.1846073724     0.1272122457    -0.2609641945
    6      C      -1.2589465777    -0.0378875330     0.2954694538
    7      H       0.0000005613    -0.7961412158    -1.3292533283
    8      H      -0.0000001772     0.7398770347    -1.3090894438
    9      H      -1.2099545412    -0.9434991788     0.8945875050
   10      H      -2.1846071388     0.1272151388    -0.2609637528
   11      H      -1.4304851212     0.9008779725     0.8291941659
 ----------------------------------------------------------------

    7    -119.0695632438      6.70E-06 Convergence criterion met
    6    -119.1145499218      3.77E-06 Convergence criterion met
 Total energy in the final basis set = -119.11454992

                    Orbital Energies (a.u.)
 --------------------------------------------------------------

 Alpha MOs
 -- Occupied --
-10.2724 -10.2663 -10.2663  -0.8848  -0.7821  -0.6864  -0.5648  -0.5154
 -0.4939  -0.4646  -0.4153  -0.4087  -0.3866

                    Cartesian Multipole Moments
 -----------------------------------------------------------------
    Charge (ESU x 10^10)
                -0.0000
    Dipole Moment (Debye)
         X      -0.0000      Y       0.2112      Z      -0.2107
       Tot       0.2983
    Quadrupole Moments (Debye-Ang)
        XX     -21.6578     XY      -0.0000     YY     -21.3625
        XZ      -0.0000     YZ      -0.3795     ZZ     -22.1482

 Total job time:  48.78s(wall), 136.47s(cpu)
        *  Thank you very much for using Q-Chem.  Have a nice day.  *
