 Q-Chem 5.2 (devel), Q-Chem, Inc., Pleasanton, CA (2019)
 Q-Chem 5.2.2 for Intel X86 EM64T Linux

User input:
--------------------------------------------------------------
$rem
   JOBTYPE  sp
   EXCHANGE   omegaB97X-D
   BASIS   6-311+G(2df,2pd)
   max_scf_cycles   250
   geom_opt_max_cycles   1500
   basis2 6-31G*
   scf_algorithm rca_diis
   SYM_IGNORE  TRUE
   print_input   true
   geom_opt_dmax   80
   pop_mulliken false
   XC_GRID 000075000302
$end

$molecule
0 1
C       1.2676693513     -0.0225466937     0.2533974300
C       0.0000000394     0.0288612562     -0.5822201741
H       1.3240695506     -0.8928417617     0.9087405183
H       1.2601244383     0.8711112364     0.8824169105
H       2.1772208908     0.0241128871     -0.3460853541
C       -1.2676692770     -0.0225466631     0.2533974348
H       0.0000002524     -0.8679510953     -1.2064089555
H       -0.0000003475     0.8794179980     -1.2672649098
H       -1.3240694344     -0.8928416556     0.9087406017
H       -2.1772208206     0.0241137560     -0.3460852852
H       -1.2601247039     0.8711114017     0.8824168022
--------------------------------------------------------------

             Standard Nuclear Orientation (Angstroms)
    I     Atom           X                Y                Z
 ----------------------------------------------------------------
    1      C       1.2676693513    -0.0225466937     0.2533974300
    2      C       0.0000000394     0.0288612562    -0.5822201741
    3      H       1.3240695506    -0.8928417617     0.9087405183
    4      H       1.2601244383     0.8711112364     0.8824169105
    5      H       2.1772208908     0.0241128871    -0.3460853541
    6      C      -1.2676692770    -0.0225466631     0.2533974348
    7      H       0.0000002524    -0.8679510953    -1.2064089555
    8      H      -0.0000003475     0.8794179980    -1.2672649098
    9      H      -1.3240694344    -0.8928416556     0.9087406017
   10      H      -2.1772208206     0.0241137560    -0.3460852852
   11      H      -1.2601247039     0.8711114017     0.8824168022
 ----------------------------------------------------------------

    7    -119.1002570442      4.59E-06 Convergence criterion met
    6    -119.1433391493      3.96E-06 Convergence criterion met
 Total energy in the final basis set = -119.14333915

                    Orbital Energies (a.u.)
 --------------------------------------------------------------

 Alpha MOs
 -- Occupied --
-10.2732 -10.2652 -10.2652  -0.8831  -0.7779  -0.6772  -0.5476  -0.5263
 -0.4824  -0.4623  -0.4230  -0.4217  -0.3986

                    Cartesian Multipole Moments
 -----------------------------------------------------------------
    Charge (ESU x 10^10)
                -0.0000
    Dipole Moment (Debye)
         X      -0.0000      Y       0.0028      Z      -0.0846
       Tot       0.0847
    Quadrupole Moments (Debye-Ang)
        XX     -22.0579     XY      -0.0000     YY     -21.3465
        XZ      -0.0000     YZ      -0.3270     ZZ     -21.9772

 Total job time:  47.92s(wall), 133.92s(cpu)
        *  Thank you very much for using Q-Chem.  Have a nice day.  *
