 Q-Chem 5.2 (devel), Q-Chem, Inc., Pleasanton, CA (2019)
 Q-Chem 5.2.2 for Intel X86 EM64T Linux

User input:
--------------------------------------------------------------
$rem
   JOBTYPE  sp
   EXCHANGE   omegaB97X-D
   BASIS   6-311+G(2df,2pd)
   max_scf_cycles   250
   geom_opt_max_cycles   1500
   basis2 6-31G*
   scf_algorithm rca_diis
   SYM_IGNORE  TRUE
   print_input   true
   geom_opt_dmax   80
   pop_mulliken false
   XC_GRID 000075000302
$end

$molecule
0 1
C       1.2898331076     -0.0130848589     0.2386641330
C       0.0153449092     -0.0011989625     -0.5861908886
H       1.2619432261     -0.8019494915     0.9929501166
H       1.3537365422     0.8015817437     0.9688406059
H       2.1427157396     0.0548890487     -0.4318310781
C       -1.2441414608     0.0093395468     0.2822823303
H       -0.0289879100     -0.8739390072     -1.2420231195
H       0.0102717050     0.8732413732     -1.2412366647
H       -1.3578792731     -0.9422656301     0.8055685817
H       -2.1806681414     -0.0536317192     -0.2795255786
H       -1.2621685050     0.9470186231     0.8335465809
--------------------------------------------------------------

             Standard Nuclear Orientation (Angstroms)
    I     Atom           X                Y                Z
 ----------------------------------------------------------------
    1      C       1.2898331076    -0.0130848589     0.2386641330
    2      C       0.0153449092    -0.0011989625    -0.5861908886
    3      H       1.2619432261    -0.8019494915     0.9929501166
    4      H       1.3537365422     0.8015817437     0.9688406059
    5      H       2.1427157396     0.0548890487    -0.4318310781
    6      C      -1.2441414608     0.0093395468     0.2822823303
    7      H      -0.0289879100    -0.8739390072    -1.2420231195
    8      H       0.0102717050     0.8732413732    -1.2412366647
    9      H      -1.3578792731    -0.9422656301     0.8055685817
   10      H      -2.1806681414    -0.0536317192    -0.2795255786
   11      H      -1.2621685050     0.9470186231     0.8335465809
 ----------------------------------------------------------------

    7    -119.0890181759      5.35E-06 Convergence criterion met
    6    -119.1326963131      3.92E-06 Convergence criterion met
 Total energy in the final basis set = -119.13269631

                    Orbital Energies (a.u.)
 --------------------------------------------------------------

 Alpha MOs
 -- Occupied --
-10.2741 -10.2656 -10.2652  -0.8818  -0.7788  -0.6793  -0.5489  -0.5304
 -0.4842  -0.4610  -0.4231  -0.4097  -0.3982

                    Cartesian Multipole Moments
 -----------------------------------------------------------------
    Charge (ESU x 10^10)
                 0.0000
    Dipole Moment (Debye)
         X      -0.0821      Y       0.0076      Z      -0.0824
       Tot       0.1165
    Quadrupole Moments (Debye-Ang)
        XX     -22.1486     XY       0.4908     YY     -21.4353
        XZ      -0.0025     YZ       0.0139     ZZ     -21.8527

 Total job time:  49.35s(wall), 137.89s(cpu)
        *  Thank you very much for using Q-Chem.  Have a nice day.  *
