 Q-Chem 5.2 (devel), Q-Chem, Inc., Pleasanton, CA (2019)
 Q-Chem 5.2.2 for Intel X86 EM64T Linux

User input:
--------------------------------------------------------------
$rem
   JOBTYPE  sp
   EXCHANGE   omegaB97X-D
   BASIS   6-311+G(2df,2pd)
   max_scf_cycles   250
   geom_opt_max_cycles   1500
   basis2 6-31G*
   scf_algorithm rca_diis
   SYM_IGNORE  TRUE
   print_input   true
   geom_opt_dmax   80
   pop_mulliken false
   XC_GRID 000075000302
$end

$molecule
0 1
C       1.2453628938     -0.0392541676     0.2732026060
C       -0.0226754374     0.0051837966     -0.5908897532
H       1.1070690282     -0.9371967496     0.8620019494
H       1.5014853524     0.9124202314     0.7548572942
H       2.1694944868     0.2117057974     -0.2561218970
C       -1.2873328147     0.0529919198     0.2382620235
H       -0.0296074600     -0.8703467042     -1.2444603284
H       0.0655852282     0.8740568592     -1.2474152699
H       -1.5050338499     -0.7751825181     0.9304631482
H       -2.1212076788     -0.2197622341     -0.4030989811
H       -1.1231398090     0.7853844352     1.0242442272
--------------------------------------------------------------

             Standard Nuclear Orientation (Angstroms)
    I     Atom           X                Y                Z
 ----------------------------------------------------------------
    1      C       1.2453628938    -0.0392541676     0.2732026060
    2      C      -0.0226754374     0.0051837966    -0.5908897532
    3      H       1.1070690282    -0.9371967496     0.8620019494
    4      H       1.5014853524     0.9124202314     0.7548572942
    5      H       2.1694944868     0.2117057974    -0.2561218970
    6      C      -1.2873328147     0.0529919198     0.2382620235
    7      H      -0.0296074600    -0.8703467042    -1.2444603284
    8      H       0.0655852282     0.8740568592    -1.2474152699
    9      H      -1.5050338499    -0.7751825181     0.9304631482
   10      H      -2.1212076788    -0.2197622341    -0.4030989811
   11      H      -1.1231398090     0.7853844352     1.0242442272
 ----------------------------------------------------------------

    7    -119.0447523464      7.47E-06 Convergence criterion met
    6    -119.0909714633      4.21E-06 Convergence criterion met
 Total energy in the final basis set = -119.09097146

                    Orbital Energies (a.u.)
 --------------------------------------------------------------

 Alpha MOs
 -- Occupied --
-10.2749 -10.2665 -10.2660  -0.8844  -0.7843  -0.6839  -0.5615  -0.5483
 -0.4830  -0.4452  -0.4337  -0.4015  -0.3713

                    Cartesian Multipole Moments
 -----------------------------------------------------------------
    Charge (ESU x 10^10)
                -0.0000
    Dipole Moment (Debye)
         X       0.1044      Y      -0.0298      Z      -0.0391
       Tot       0.1154
    Quadrupole Moments (Debye-Ang)
        XX     -22.0631     XY       1.9962     YY     -21.5570
        XZ      -0.0892     YZ      -0.0459     ZZ     -22.0698

 Total job time:  48.68s(wall), 135.92s(cpu)
        *  Thank you very much for using Q-Chem.  Have a nice day.  *
