 Q-Chem 5.2 (devel), Q-Chem, Inc., Pleasanton, CA (2019)
 Q-Chem 5.2.2 for Intel X86 EM64T Linux

User input:
--------------------------------------------------------------
$rem
   JOBTYPE  sp
   EXCHANGE   omegaB97X-D
   BASIS   6-311+G(2df,2pd)
   max_scf_cycles   250
   geom_opt_max_cycles   1500
   basis2 6-31G*
   scf_algorithm rca_diis
   SYM_IGNORE  TRUE
   print_input   true
   geom_opt_dmax   80
   pop_mulliken false
   XC_GRID 000075000302
$end

$molecule
0 1
C       1.3431658764     0.0034640482     0.2584451678
C       -0.0000000545     0.0018801039     -0.6881299183
H       1.2987631368     -0.8727747161     0.9100996651
H       1.3054909535     0.8730254873     0.9187247032
H       2.3186536343     -0.0031547518     -0.2308358733
C       -1.3431662367     0.0034639284     0.2584447337
H       0.0000006744     -0.8767507268     -1.3372696280
H       -0.0000000673     0.8737502258     -1.3464224920
H       -1.2987630361     -0.8727743339     0.9100998648
H       -2.3186544421     -0.0031540265     -0.2308353742
H       -1.3054904993     0.8730254274     0.9187241701
--------------------------------------------------------------

             Standard Nuclear Orientation (Angstroms)
    I     Atom           X                Y                Z
 ----------------------------------------------------------------
    1      C       1.3431658764     0.0034640482     0.2584451678
    2      C      -0.0000000545     0.0018801039    -0.6881299183
    3      H       1.2987631368    -0.8727747161     0.9100996651
    4      H       1.3054909535     0.8730254873     0.9187247032
    5      H       2.3186536343    -0.0031547518    -0.2308358733
    6      C      -1.3431662367     0.0034639284     0.2584447337
    7      H       0.0000006744    -0.8767507268    -1.3372696280
    8      H      -0.0000000673     0.8737502258    -1.3464224920
    9      H      -1.2987630361    -0.8727743339     0.9100998648
   10      H      -2.3186544421    -0.0031540265    -0.2308353742
   11      H      -1.3054904993     0.8730254274     0.9187241701
 ----------------------------------------------------------------

    7    -119.0885963503      5.85E-06 Convergence criterion met
    5    -119.1309367052      9.59E-06 Convergence criterion met
 Total energy in the final basis set = -119.13093671

                    Orbital Energies (a.u.)
 --------------------------------------------------------------

 Alpha MOs
 -- Occupied --
-10.2936 -10.2751 -10.2751  -0.8531  -0.7706  -0.6885  -0.5300  -0.5145
 -0.4678  -0.4612  -0.4191  -0.4181  -0.4132

                    Cartesian Multipole Moments
 -----------------------------------------------------------------
    Charge (ESU x 10^10)
                 0.0000
    Dipole Moment (Debye)
         X       0.0000      Y      -0.0085      Z       0.0005
       Tot       0.0085
    Quadrupole Moments (Debye-Ang)
        XX     -21.5882     XY      -0.0000     YY     -21.6101
        XZ      -0.0000     YZ       0.0224     ZZ     -21.9253

 Total job time:  43.27s(wall), 119.71s(cpu)
        *  Thank you very much for using Q-Chem.  Have a nice day.  *
