 Q-Chem 5.2 (devel), Q-Chem, Inc., Pleasanton, CA (2019)
 Q-Chem 5.2.2 for Intel X86 EM64T Linux

User input:
--------------------------------------------------------------
$rem
   JOBTYPE  sp
   EXCHANGE   omegaB97X-D
   BASIS   6-311+G(2df,2pd)
   max_scf_cycles   250
   geom_opt_max_cycles   1500
   basis2 6-31G*
   scf_algorithm rca_diis
   SYM_IGNORE  TRUE
   print_input   true
   geom_opt_dmax   80
   pop_mulliken false
   XC_GRID 000075000302
$end

$molecule
0 1
C       1.3008737930     -0.0208971070     0.2292094956
C       0.0230395030     -0.0027030778     -0.5848819538
H       1.2437607067     -0.7566875416     1.0337661896
H       1.3799472334     0.7574425167     0.9994325402
H       2.1292224306     0.0830442564     -0.4642397847
C       -1.2325720785     0.0124791319     0.2942475226
H       -0.0432577405     -0.8740397692     -1.2407275542
H       0.0154756767     0.8724377813     -1.2389674435
H       -1.3872148956     -0.9661921497     0.7532416125
H       -2.1867274318     -0.0801752570     -0.2362843971
H       -1.2425472577     0.9752918820     0.7962487918
--------------------------------------------------------------

             Standard Nuclear Orientation (Angstroms)
    I     Atom           X                Y                Z
 ----------------------------------------------------------------
    1      C       1.3008737930    -0.0208971070     0.2292094956
    2      C       0.0230395030    -0.0027030778    -0.5848819538
    3      H       1.2437607067    -0.7566875416     1.0337661896
    4      H       1.3799472334     0.7574425167     0.9994325402
    5      H       2.1292224306     0.0830442564    -0.4642397847
    6      C      -1.2325720785     0.0124791319     0.2942475226
    7      H      -0.0432577405    -0.8740397692    -1.2407275542
    8      H       0.0154756767     0.8724377813    -1.2389674435
    9      H      -1.3872148956    -0.9661921497     0.7532416125
   10      H      -2.1867274318    -0.0801752570    -0.2362843971
   11      H      -1.2425472577     0.9752918820     0.7962487918
 ----------------------------------------------------------------

    7    -119.0712073379      6.39E-06 Convergence criterion met
    6    -119.1159000433      3.99E-06 Convergence criterion met
 Total energy in the final basis set = -119.11590004

                    Orbital Energies (a.u.)
 --------------------------------------------------------------

 Alpha MOs
 -- Occupied --
-10.2743 -10.2660 -10.2654  -0.8827  -0.7809  -0.6813  -0.5530  -0.5368
 -0.4862  -0.4587  -0.4249  -0.4016  -0.3891

                    Cartesian Multipole Moments
 -----------------------------------------------------------------
    Charge (ESU x 10^10)
                 0.0000
    Dipole Moment (Debye)
         X      -0.1313      Y       0.0178      Z      -0.0780
       Tot       0.1537
    Quadrupole Moments (Debye-Ang)
        XX     -22.1221     XY       0.7483     YY     -21.5266
        XZ       0.0201     YZ       0.0310     ZZ     -21.8694

 Total job time:  48.82s(wall), 136.15s(cpu)
        *  Thank you very much for using Q-Chem.  Have a nice day.  *
