 Q-Chem 5.2 (devel), Q-Chem, Inc., Pleasanton, CA (2019)
 Q-Chem 5.2.2 for Intel X86 EM64T Linux

User input:
--------------------------------------------------------------
$rem
   JOBTYPE  sp
   EXCHANGE   omegaB97X-D
   BASIS   6-311+G(2df,2pd)
   max_scf_cycles   250
   geom_opt_max_cycles   1500
   basis2 6-31G*
   scf_algorithm rca_diis
   SYM_IGNORE  TRUE
   print_input   true
   geom_opt_dmax   80
   pop_mulliken false
   XC_GRID 000075000302
$end

$molecule
0 1
C       1.2142872113     -0.0023592974     0.2610272587
C       0.0000000289     -0.0014774796     -0.5215417329
H       1.3062410350     -0.8846721786     0.8964383522
H       1.3008244608     0.8846551419     0.8910994836
H       2.0501352149     0.0023132374     -0.4383904189
C       -1.2142870132     -0.0023591189     0.2610275316
H       -0.0000004116     -0.8720427152     -1.1819413702
H       -0.0000001264     0.8736462856     -1.1758213512
H       -1.3062410325     -0.8846722426     0.8964382250
H       -2.0501345935     0.0023137224     -0.4383906741
H       -1.3008248342     0.8846553110     0.8910997151
--------------------------------------------------------------

             Standard Nuclear Orientation (Angstroms)
    I     Atom           X                Y                Z
 ----------------------------------------------------------------
    1      C       1.2142872113    -0.0023592974     0.2610272587
    2      C       0.0000000289    -0.0014774796    -0.5215417329
    3      H       1.3062410350    -0.8846721786     0.8964383522
    4      H       1.3008244608     0.8846551419     0.8910994836
    5      H       2.0501352149     0.0023132374    -0.4383904189
    6      C      -1.2142870132    -0.0023591189     0.2610275316
    7      H      -0.0000004116    -0.8720427152    -1.1819413702
    8      H      -0.0000001264     0.8736462856    -1.1758213512
    9      H      -1.3062410325    -0.8846722426     0.8964382250
   10      H      -2.0501345935     0.0023137224    -0.4383906741
   11      H      -1.3008248342     0.8846553110     0.8910997151
 ----------------------------------------------------------------

    7    -119.0927525548      4.67E-06 Convergence criterion met
    6    -119.1368698787      3.39E-06 Convergence criterion met
 Total energy in the final basis set = -119.13686988

                    Orbital Energies (a.u.)
 --------------------------------------------------------------

 Alpha MOs
 -- Occupied --
-10.2606 -10.2576 -10.2575  -0.9044  -0.7842  -0.6706  -0.5590  -0.5338
 -0.4970  -0.4650  -0.4183  -0.4142  -0.3990

                    Cartesian Multipole Moments
 -----------------------------------------------------------------
    Charge (ESU x 10^10)
                -0.0000
    Dipole Moment (Debye)
         X      -0.0000      Y       0.0038      Z      -0.1401
       Tot       0.1402
    Quadrupole Moments (Debye-Ang)
        XX     -22.5860     XY      -0.0000     YY     -21.2008
        XZ       0.0000     YZ      -0.0173     ZZ     -21.7444

 Total job time:  48.98s(wall), 137.07s(cpu)
        *  Thank you very much for using Q-Chem.  Have a nice day.  *
