 Q-Chem 5.2 (devel), Q-Chem, Inc., Pleasanton, CA (2019)
 Q-Chem 5.2.2 for Intel X86 EM64T Linux

User input:
--------------------------------------------------------------
$rem
   JOBTYPE  sp
   EXCHANGE   omegaB97X-D
   BASIS   6-311+G(2df,2pd)
   max_scf_cycles   250
   geom_opt_max_cycles   1500
   basis2 6-31G*
   scf_algorithm rca_diis
   SYM_IGNORE  TRUE
   print_input   true
   geom_opt_dmax   80
   pop_mulliken false
   XC_GRID 000075000302
$end

$molecule
0 1
C       1.5119692746     -0.0001962471     0.2644476541
C       -0.0000000877     0.0027487838     -0.1141400684
H       1.8996684729     -0.8852703500     0.7691526677
H       1.9048579974     0.8812160505     0.7724076461
H       1.9250252612     0.0067853165     -0.7492778002
C       -1.5119695495     -0.0001966807     0.2644471049
H       0.0000010361     -0.8345811622     -0.8218690999
H       -0.0000004303     0.8267630786     -0.8364059405
H       -1.8996688622     -0.8852702806     0.7691528984
H       -1.9250261504     0.0067864134     -0.7492778026
H       -1.9048570227     0.8812157438     0.7724077593
--------------------------------------------------------------

             Standard Nuclear Orientation (Angstroms)
    I     Atom           X                Y                Z
 ----------------------------------------------------------------
    1      C       1.5119692746    -0.0001962471     0.2644476541
    2      C      -0.0000000877     0.0027487838    -0.1141400684
    3      H       1.8996684729    -0.8852703500     0.7691526677
    4      H       1.9048579974     0.8812160505     0.7724076461
    5      H       1.9250252612     0.0067853165    -0.7492778002
    6      C      -1.5119695495    -0.0001966807     0.2644471049
    7      H       0.0000010361    -0.8345811622    -0.8218690999
    8      H      -0.0000004303     0.8267630786    -0.8364059405
    9      H      -1.8996688622    -0.8852702806     0.7691528984
   10      H      -1.9250261504     0.0067864134    -0.7492778026
   11      H      -1.9048570227     0.8812157438     0.7724077593
 ----------------------------------------------------------------

    7    -119.0528813898      4.38E-06 Convergence criterion met
    6    -119.0965484876      4.19E-06 Convergence criterion met
 Total energy in the final basis set = -119.09654849

                    Orbital Energies (a.u.)
 --------------------------------------------------------------

 Alpha MOs
 -- Occupied --
-10.2803 -10.2761 -10.2761  -0.8749  -0.7941  -0.6722  -0.5352  -0.5051
 -0.5037  -0.4766  -0.4294  -0.3956  -0.3839

                    Cartesian Multipole Moments
 -----------------------------------------------------------------
    Charge (ESU x 10^10)
                -0.0000
    Dipole Moment (Debye)
         X       0.0000      Y      -0.0045      Z      -0.3284
       Tot       0.3284
    Quadrupole Moments (Debye-Ang)
        XX     -21.6788     XY      -0.0000     YY     -21.5840
        XZ       0.0000     YZ      -0.0276     ZZ     -21.8356

 Total job time:  47.47s(wall), 132.13s(cpu)
        *  Thank you very much for using Q-Chem.  Have a nice day.  *
