 Q-Chem 5.2 (devel), Q-Chem, Inc., Pleasanton, CA (2019)
 Q-Chem 5.2.2 for Intel X86 EM64T Linux

User input:
--------------------------------------------------------------
$rem
   JOBTYPE  sp
   EXCHANGE   omegaB97X-D
   BASIS   6-311+G(2df,2pd)
   max_scf_cycles   250
   geom_opt_max_cycles   1500
   basis2 6-31G*
   scf_algorithm rca_diis
   SYM_IGNORE  TRUE
   print_input   true
   geom_opt_dmax   80
   pop_mulliken false
   XC_GRID 000075000302
$end

$molecule
0 1
C       1.3356768453     -0.0000760421     0.2603425923
C       -0.0000000224     0.0010243073     -0.4894466467
H       1.4590695261     -0.8827720946     0.8903873189
H       1.4606857774     0.8818821503     0.8912566269
H       2.1451565756     0.0009450704     -0.4717100777
C       -1.3356769464     -0.0000760769     0.2603424757
H       0.0000002490     -0.8679190138     -1.1531664653
H       -0.0000001793     0.8669364345     -1.1568947116
H       -1.4590695414     -0.8827719602     0.8903874343
H       -2.1451567522     0.0009457204     -0.4717100220
H       -1.4606855922     0.8818821708     0.8912564941
--------------------------------------------------------------

             Standard Nuclear Orientation (Angstroms)
    I     Atom           X                Y                Z
 ----------------------------------------------------------------
    1      C       1.3356768453    -0.0000760421     0.2603425923
    2      C      -0.0000000224     0.0010243073    -0.4894466467
    3      H       1.4590695261    -0.8827720946     0.8903873189
    4      H       1.4606857774     0.8818821503     0.8912566269
    5      H       2.1451565756     0.0009450704    -0.4717100777
    6      C      -1.3356769464    -0.0000760769     0.2603424757
    7      H       0.0000002490    -0.8679190138    -1.1531664653
    8      H      -0.0000001793     0.8669364345    -1.1568947116
    9      H      -1.4590695414    -0.8827719602     0.8903874343
   10      H      -2.1451567522     0.0009457204    -0.4717100220
   11      H      -1.4606855922     0.8818821708     0.8912564941
 ----------------------------------------------------------------

    7    -119.1002002330      4.27E-06 Convergence criterion met
    6    -119.1430651710      4.10E-06 Convergence criterion met
 Total energy in the final basis set = -119.14306517

                    Orbital Energies (a.u.)
 --------------------------------------------------------------

 Alpha MOs
 -- Occupied --
-10.2751 -10.2668 -10.2668  -0.8765  -0.7825  -0.6753  -0.5421  -0.5180
 -0.4887  -0.4683  -0.4234  -0.4099  -0.4042

                    Cartesian Multipole Moments
 -----------------------------------------------------------------
    Charge (ESU x 10^10)
                 0.0000
    Dipole Moment (Debye)
         X       0.0000      Y      -0.0004      Z      -0.1115
       Tot       0.1115
    Quadrupole Moments (Debye-Ang)
        XX     -22.0630     XY      -0.0000     YY     -21.3981
        XZ       0.0000     YZ      -0.0062     ZZ     -21.8011

 Total job time:  48.35s(wall), 134.87s(cpu)
        *  Thank you very much for using Q-Chem.  Have a nice day.  *
