 Q-Chem 5.2 (devel), Q-Chem, Inc., Pleasanton, CA (2019)
 Q-Chem 5.2.2 for Intel X86 EM64T Linux

User input:
--------------------------------------------------------------
$rem
   JOBTYPE  sp
   EXCHANGE   omegaB97X-D
   BASIS   6-311+G(2df,2pd)
   max_scf_cycles   250
   geom_opt_max_cycles   1500
   basis2 6-31G*
   scf_algorithm rca_diis
   SYM_IGNORE  TRUE
   print_input   true
   geom_opt_dmax   80
   pop_mulliken false
   XC_GRID 000075000302
$end

$molecule
0 1
C       1.2821692635     0.0000080431     0.2694333846
C       0.0125457211     -0.0000001588     -0.5872749490
H       1.3113750141     -0.8082025933     0.8579210553
H       1.3113667899     0.8081843291     0.8579028479
H       2.1160504233     0.0000004736     -0.3067726507
C       -1.2521739018     -0.0000085775     0.2494719645
H       0.0160717537     -0.8738719213     -1.2430869644
H       0.0160598653     0.8738715717     -1.2430867837
H       -1.3001517755     -0.9528522036     0.9498986244
H       -2.2131513493     0.0000009012     -0.4132787232
H       -1.3001618648     0.9528708019     0.9499172131
--------------------------------------------------------------

             Standard Nuclear Orientation (Angstroms)
    I     Atom           X                Y                Z
 ----------------------------------------------------------------
    1      C       1.2821692635     0.0000080431     0.2694333846
    2      C       0.0125457211    -0.0000001588    -0.5872749490
    3      H       1.3113750141    -0.8082025933     0.8579210553
    4      H       1.3113667899     0.8081843291     0.8579028479
    5      H       2.1160504233     0.0000004736    -0.3067726507
    6      C      -1.2521739018    -0.0000085775     0.2494719645
    7      H       0.0160717537    -0.8738719213    -1.2430869644
    8      H       0.0160598653     0.8738715717    -1.2430867837
    9      H      -1.3001517755    -0.9528522036     0.9498986244
   10      H      -2.2131513493     0.0000009012    -0.4132787232
   11      H      -1.3001618648     0.9528708019     0.9499172131
 ----------------------------------------------------------------

    7    -119.0738922029      5.07E-06 Convergence criterion met
    6    -119.1178926362      4.23E-06 Convergence criterion met
 Total energy in the final basis set = -119.11789264

                    Orbital Energies (a.u.)
 --------------------------------------------------------------

 Alpha MOs
 -- Occupied --
-10.2916 -10.2746 -10.2365  -0.8839  -0.7810  -0.6752  -0.5484  -0.5269
 -0.4824  -0.4656  -0.4254  -0.4103  -0.4051

                    Cartesian Multipole Moments
 -----------------------------------------------------------------
    Charge (ESU x 10^10)
                 0.0000
    Dipole Moment (Debye)
         X       0.1954      Y      -0.0000      Z      -0.0995
       Tot       0.2193
    Quadrupole Moments (Debye-Ang)
        XX     -22.1571     XY       0.0000     YY     -21.3569
        XZ       0.1963     YZ      -0.0000     ZZ     -21.8236

 Total job time:  48.71s(wall), 136.01s(cpu)
        *  Thank you very much for using Q-Chem.  Have a nice day.  *
