 Q-Chem 5.2 (devel), Q-Chem, Inc., Pleasanton, CA (2019)
 Q-Chem 5.2.2 for Intel X86 EM64T Linux

User input:
--------------------------------------------------------------
$rem
   JOBTYPE  sp
   EXCHANGE   omegaB97X-D
   BASIS   6-311+G(2df,2pd)
   max_scf_cycles   250
   geom_opt_max_cycles   1500
   basis2 6-31G*
   scf_algorithm rca_diis
   SYM_IGNORE  TRUE
   print_input   true
   geom_opt_dmax   80
   pop_mulliken false
   XC_GRID 000075000302
$end

$molecule
0 1
C       1.1939533486     0.0055558640     0.1399589072
C       -0.2423139705     0.0006505175     -0.5545458641
H       1.3540170101     -0.8044963157     0.8651307276
H       1.3328448571     0.8099944025     0.8750122650
H       2.1646828903     -0.0071924933     -0.3651483279
C       -1.3630709612     -0.0044268786     0.3697225452
H       0.1464121087     -0.7963480715     -1.1928590521
H       0.1675220631     0.7888701220     -1.1905514482
H       -1.3102777784     -0.9453833697     0.9069241663
H       -2.1137467575     0.0126610830     -0.4156788461
H       -1.3300228710     0.9401158059     0.9030799461
--------------------------------------------------------------

             Standard Nuclear Orientation (Angstroms)
    I     Atom           X                Y                Z
 ----------------------------------------------------------------
    1      C       1.1939533486     0.0055558640     0.1399589072
    2      C      -0.2423139705     0.0006505175    -0.5545458641
    3      H       1.3540170101    -0.8044963157     0.8651307276
    4      H       1.3328448571     0.8099944025     0.8750122650
    5      H       2.1646828903    -0.0071924933    -0.3651483279
    6      C      -1.3630709612    -0.0044268786     0.3697225452
    7      H       0.1464121087    -0.7963480715    -1.1928590521
    8      H       0.1675220631     0.7888701220    -1.1905514482
    9      H      -1.3102777784    -0.9453833697     0.9069241663
   10      H      -2.1137467575     0.0126610830    -0.4156788461
   11      H      -1.3300228710     0.9401158059     0.9030799461
 ----------------------------------------------------------------

    7    -119.0276275188      7.15E-06 Convergence criterion met
    5    -119.0736258634      9.32E-06 Convergence criterion met
 Total energy in the final basis set = -119.07362586

                    Orbital Energies (a.u.)
 --------------------------------------------------------------

 Alpha MOs
 -- Occupied --
-10.2769 -10.2752 -10.2624  -0.8951  -0.7901  -0.6865  -0.5515  -0.5281
 -0.5032  -0.4656  -0.4321  -0.3831  -0.3758

                    Cartesian Multipole Moments
 -----------------------------------------------------------------
    Charge (ESU x 10^10)
                -0.0000
    Dipole Moment (Debye)
         X      -0.0174      Y      -0.0057      Z      -0.0250
       Tot       0.0310
    Quadrupole Moments (Debye-Ang)
        XX     -22.1462     XY      -0.0701     YY     -21.7684
        XZ      -0.4252     YZ       0.0085     ZZ     -22.1177

 Total job time:  44.90s(wall), 124.30s(cpu)
        *  Thank you very much for using Q-Chem.  Have a nice day.  *
