 Q-Chem 5.2 (devel), Q-Chem, Inc., Pleasanton, CA (2019)
 Q-Chem 5.2.2 for Intel X86 EM64T Linux

User input:
--------------------------------------------------------------
$rem
   JOBTYPE  sp
   EXCHANGE   omegaB97X-D
   BASIS   6-311+G(2df,2pd)
   max_scf_cycles   250
   geom_opt_max_cycles   1500
   basis2 6-31G*
   scf_algorithm rca_diis
   SYM_IGNORE  TRUE
   print_input   true
   geom_opt_dmax   80
   pop_mulliken false
   XC_GRID 000075000302
$end

$molecule
0 1
C       1.2650406975     -0.0133318941     0.2720104314
C       -0.0000000059     -0.0128260323     -0.5691349185
H       1.2743929797     -0.9034350073     0.9014803036
H       1.3476535099     0.8900586930     0.8805876878
H       2.1734381199     0.0430389921     -0.3298962941
C       -1.2650406551     -0.0133319818     0.2720104361
H       0.0000002168     -0.8503808858     -1.2730407595
H       -0.0000001361     0.8305446381     -1.2651437808
H       -1.2743923791     -0.9034348574     0.9014805696
H       -2.1734380889     0.0430403427     -0.3298962070
H       -1.3476543192     0.8900586588     0.8805875504
--------------------------------------------------------------

             Standard Nuclear Orientation (Angstroms)
    I     Atom           X                Y                Z
 ----------------------------------------------------------------
    1      C       1.2650406975    -0.0133318941     0.2720104314
    2      C      -0.0000000059    -0.0128260323    -0.5691349185
    3      H       1.2743929797    -0.9034350073     0.9014803036
    4      H       1.3476535099     0.8900586930     0.8805876878
    5      H       2.1734381199     0.0430389921    -0.3298962941
    6      C      -1.2650406551    -0.0133319818     0.2720104361
    7      H       0.0000002168    -0.8503808858    -1.2730407595
    8      H      -0.0000001361     0.8305446381    -1.2651437808
    9      H      -1.2743923791    -0.9034348574     0.9014805696
   10      H      -2.1734380889     0.0430403427    -0.3298962070
   11      H      -1.3476543192     0.8900586588     0.8805875504
 ----------------------------------------------------------------

    7    -119.0994449084      4.80E-06 Convergence criterion met
    6    -119.1426075862      3.81E-06 Convergence criterion met
 Total energy in the final basis set = -119.14260759

                    Orbital Energies (a.u.)
 --------------------------------------------------------------

 Alpha MOs
 -- Occupied --
-10.2733 -10.2654 -10.2654  -0.8819  -0.7782  -0.6795  -0.5474  -0.5239
 -0.4777  -0.4698  -0.4191  -0.4179  -0.4028

                    Cartesian Multipole Moments
 -----------------------------------------------------------------
    Charge (ESU x 10^10)
                -0.0000
    Dipole Moment (Debye)
         X      -0.0000      Y       0.0667      Z      -0.1255
       Tot       0.1421
    Quadrupole Moments (Debye-Ang)
        XX     -22.0009     XY      -0.0000     YY     -21.3407
        XZ      -0.0000     YZ      -0.1234     ZZ     -21.9248

 Total job time:  48.58s(wall), 135.28s(cpu)
        *  Thank you very much for using Q-Chem.  Have a nice day.  *
