 Q-Chem 5.2 (devel), Q-Chem, Inc., Pleasanton, CA (2019)
 Q-Chem 5.2.2 for Intel X86 EM64T Linux

User input:
--------------------------------------------------------------
$rem
   JOBTYPE  sp
   EXCHANGE   omegaB97X-D
   BASIS   6-311+G(2df,2pd)
   max_scf_cycles   250
   geom_opt_max_cycles   1500
   basis2 6-31G*
   scf_algorithm rca_diis
   SYM_IGNORE  TRUE
   print_input   true
   geom_opt_dmax   80
   pop_mulliken false
   XC_GRID 000075000302
$end

$molecule
0 1
C       1.2593696673     -0.0724908117     0.2565625616
C       0.0000000217     -0.1299451919     -0.6034394258
H       1.4160802353     -0.8303526161     1.0239935988
H       1.1424868664     0.8873109845     0.7691423753
H       2.1573152228     0.0249311300     -0.3536987288
C       -1.2593694905     -0.0724908620     0.2565628331
H       0.0000000583     -0.7891862867     -1.4708401534
H       -0.0000002909     0.9003338719     -0.9766751976
H       -1.4160804229     -0.8303526513     1.0239937283
H       -2.1573148209     0.0249317998     -0.3536986919
H       -1.1424871072     0.8873112993     0.7691421194
--------------------------------------------------------------

             Standard Nuclear Orientation (Angstroms)
    I     Atom           X                Y                Z
 ----------------------------------------------------------------
    1      C       1.2593696673    -0.0724908117     0.2565625616
    2      C       0.0000000217    -0.1299451919    -0.6034394258
    3      H       1.4160802353    -0.8303526161     1.0239935988
    4      H       1.1424868664     0.8873109845     0.7691423753
    5      H       2.1573152228     0.0249311300    -0.3536987288
    6      C      -1.2593694905    -0.0724908620     0.2565628331
    7      H       0.0000000583    -0.7891862867    -1.4708401534
    8      H      -0.0000002909     0.9003338719    -0.9766751976
    9      H      -1.4160804229    -0.8303526513     1.0239937283
   10      H      -2.1573148209     0.0249317998    -0.3536986919
   11      H      -1.1424871072     0.8873112993     0.7691421194
 ----------------------------------------------------------------

    7    -119.0862408310      4.68E-06 Convergence criterion met
    6    -119.1297328931      3.86E-06 Convergence criterion met
 Total energy in the final basis set = -119.12973289

                    Orbital Energies (a.u.)
 --------------------------------------------------------------

 Alpha MOs
 -- Occupied --
-10.2759 -10.2664 -10.2664  -0.8865  -0.7773  -0.6770  -0.5527  -0.5224
 -0.4887  -0.4555  -0.4230  -0.4172  -0.3984

                    Cartesian Multipole Moments
 -----------------------------------------------------------------
    Charge (ESU x 10^10)
                -0.0000
    Dipole Moment (Debye)
         X      -0.0000      Y       0.1786      Z      -0.0904
       Tot       0.2001
    Quadrupole Moments (Debye-Ang)
        XX     -22.1883     XY      -0.0000     YY     -21.5581
        XZ      -0.0000     YZ      -0.0936     ZZ     -21.7673

 Total job time:  48.06s(wall), 134.13s(cpu)
        *  Thank you very much for using Q-Chem.  Have a nice day.  *
