 Q-Chem 5.2 (devel), Q-Chem, Inc., Pleasanton, CA (2019)
 Q-Chem 5.2.2 for Intel X86 EM64T Linux

User input:
--------------------------------------------------------------
$rem
   JOBTYPE  sp
   EXCHANGE   omegaB97X-D
   BASIS   6-311+G(2df,2pd)
   max_scf_cycles   250
   geom_opt_max_cycles   1500
   basis2 6-31G*
   scf_algorithm rca_diis
   SYM_IGNORE  TRUE
   print_input   true
   geom_opt_dmax   80
   pop_mulliken false
   XC_GRID 000075000302
$end

$molecule
0 1
C       1.2170938870     0.0007736770     0.2175783510
C       0.0799187962     0.0000072304     -0.5851424322
H       1.2568072417     -0.8861644254     0.8503501483
H       1.2603999426     0.8859258396     0.8525181011
H       2.0957441496     0.0006296542     -0.4281584463
C       -1.3213125488     -0.0008085301     0.2976723937
H       0.1814930400     -0.8715229446     -1.2361971379
H       0.1792275681     0.8716617704     -1.2363802960
H       -1.3586002330     -0.8748306471     0.9537321684
H       -2.2357620864     -0.0007249903     -0.2964865852
H       -1.3550098177     0.8750540320     0.9515587540
--------------------------------------------------------------

             Standard Nuclear Orientation (Angstroms)
    I     Atom           X                Y                Z
 ----------------------------------------------------------------
    1      C       1.2170938870     0.0007736770     0.2175783510
    2      C       0.0799187962     0.0000072304    -0.5851424322
    3      H       1.2568072417    -0.8861644254     0.8503501483
    4      H       1.2603999426     0.8859258396     0.8525181011
    5      H       2.0957441496     0.0006296542    -0.4281584463
    6      C      -1.3213125488    -0.0008085301     0.2976723937
    7      H       0.1814930400    -0.8715229446    -1.2361971379
    8      H       0.1792275681     0.8716617704    -1.2363802960
    9      H      -1.3586002330    -0.8748306471     0.9537321684
   10      H      -2.2357620864    -0.0007249903    -0.2964865852
   11      H      -1.3550098177     0.8750540320     0.9515587540
 ----------------------------------------------------------------

    7    -119.0794771173      5.21E-06 Convergence criterion met
    6    -119.1233875864      4.63E-06 Convergence criterion met
 Total energy in the final basis set = -119.12338759

                    Orbital Energies (a.u.)
 --------------------------------------------------------------

 Alpha MOs
 -- Occupied --
-10.2744 -10.2731 -10.2548  -0.8940  -0.7760  -0.6738  -0.5524  -0.5298
 -0.4814  -0.4641  -0.4369  -0.4024  -0.3973

                    Cartesian Multipole Moments
 -----------------------------------------------------------------
    Charge (ESU x 10^10)
                -0.0000
    Dipole Moment (Debye)
         X       0.0848      Y       0.0002      Z      -0.0805
       Tot       0.1169
    Quadrupole Moments (Debye-Ang)
        XX     -22.0824     XY       0.0073     YY     -21.3626
        XZ      -0.6256     YZ       0.0002     ZZ     -21.8765

 Total job time:  48.11s(wall), 134.12s(cpu)
        *  Thank you very much for using Q-Chem.  Have a nice day.  *
