 Q-Chem 5.2 (devel), Q-Chem, Inc., Pleasanton, CA (2019)
 Q-Chem 5.2.2 for Intel X86 EM64T Linux

User input:
--------------------------------------------------------------
$rem
   JOBTYPE  sp
   EXCHANGE   omegaB97X-D
   BASIS   6-311+G(2df,2pd)
   max_scf_cycles   250
   geom_opt_max_cycles   1500
   basis2 6-31G*
   scf_algorithm rca_diis
   SYM_IGNORE  TRUE
   print_input   true
   geom_opt_dmax   80
   pop_mulliken false
   XC_GRID 000075000302
$end

$molecule
0 1
C       1.2723996611     0.0121811843     0.2548124710
C       0.0056099392     0.0003211944     -0.5874490210
H       1.3550796258     -0.8588902883     0.9117878181
H       1.2583010824     0.8628771252     0.9371073467
H       2.1577537787     -0.0542299866     -0.3767323961
C       -1.2618973299     -0.0113219207     0.2636941847
H       0.0074311780     -0.8736562902     -1.2431294702
H       -0.0166788104     0.8738736643     -1.2433195395
H       -1.2555509121     -0.8993924161     0.8949103779
H       -2.1691883844     0.0537519525     -0.3394007900
H       -1.3532598889     0.8944864472     0.8687640372
--------------------------------------------------------------

             Standard Nuclear Orientation (Angstroms)
    I     Atom           X                Y                Z
 ----------------------------------------------------------------
    1      C       1.2723996611     0.0121811843     0.2548124710
    2      C       0.0056099392     0.0003211944    -0.5874490210
    3      H       1.3550796258    -0.8588902883     0.9117878181
    4      H       1.2583010824     0.8628771252     0.9371073467
    5      H       2.1577537787    -0.0542299866    -0.3767323961
    6      C      -1.2618973299    -0.0113219207     0.2636941847
    7      H       0.0074311780    -0.8736562902    -1.2431294702
    8      H      -0.0166788104     0.8738736643    -1.2433195395
    9      H      -1.2555509121    -0.8993924161     0.8949103779
   10      H      -2.1691883844     0.0537519525    -0.3394007900
   11      H      -1.3532598889     0.8944864472     0.8687640372
 ----------------------------------------------------------------

    7    -119.0995552349      4.70E-06 Convergence criterion met
    6    -119.1426583643      3.89E-06 Convergence criterion met
 Total energy in the final basis set = -119.14265836

                    Orbital Energies (a.u.)
 --------------------------------------------------------------

 Alpha MOs
 -- Occupied --
-10.2740 -10.2652 -10.2652  -0.8813  -0.7775  -0.6781  -0.5466  -0.5267
 -0.4825  -0.4613  -0.4224  -0.4168  -0.4028

                    Cartesian Multipole Moments
 -----------------------------------------------------------------
    Charge (ESU x 10^10)
                -0.0000
    Dipole Moment (Debye)
         X      -0.0170      Y      -0.0019      Z      -0.0830
       Tot       0.0847
    Quadrupole Moments (Debye-Ang)
        XX     -22.1612     XY      -0.4767     YY     -21.3741
        XZ       0.0166     YZ      -0.0028     ZZ     -21.8556

 Total job time:  48.65s(wall), 135.18s(cpu)
        *  Thank you very much for using Q-Chem.  Have a nice day.  *
