 Q-Chem 5.2 (devel), Q-Chem, Inc., Pleasanton, CA (2019)
 Q-Chem 5.2.2 for Intel X86 EM64T Linux

User input:
--------------------------------------------------------------
$rem
   JOBTYPE  sp
   EXCHANGE   omegaB97X-D
   BASIS   6-311+G(2df,2pd)
   max_scf_cycles   250
   geom_opt_max_cycles   1500
   basis2 6-31G*
   scf_algorithm rca_diis
   SYM_IGNORE  TRUE
   print_input   true
   geom_opt_dmax   80
   pop_mulliken false
   XC_GRID 000075000302
$end

$molecule
0 1
C       1.2062554529     0.0043958689     0.1626087860
C       -0.1973432901     0.0004501053     -0.5652679117
H       1.3408429292     -0.8205235357     0.8739205356
H       1.3240027079     0.8246992330     0.8816626213
H       2.1651350019     -0.0060612846     -0.3630834121
C       -1.3441499168     -0.0036225679     0.3495345742
H       0.1251269353     -0.8222313671     -1.2078922383
H       0.1425708493     0.8173586768     -1.2062646408
H       -1.3071358108     -0.9335576775     0.9096195455
H       -2.1322218509     0.0095573137     -0.3995450374
H       -1.3230830687     0.9295359011     0.9057521964
--------------------------------------------------------------

             Standard Nuclear Orientation (Angstroms)
    I     Atom           X                Y                Z
 ----------------------------------------------------------------
    1      C       1.2062554529     0.0043958689     0.1626087860
    2      C      -0.1973432901     0.0004501053    -0.5652679117
    3      H       1.3408429292    -0.8205235357     0.8739205356
    4      H       1.3240027079     0.8246992330     0.8816626213
    5      H       2.1651350019    -0.0060612846    -0.3630834121
    6      C      -1.3441499168    -0.0036225679     0.3495345742
    7      H       0.1251269353    -0.8222313671    -1.2078922383
    8      H       0.1425708493     0.8173586768    -1.2062646408
    9      H      -1.3071358108    -0.9335576775     0.9096195455
   10      H      -2.1322218509     0.0095573137    -0.3995450374
   11      H      -1.3230830687     0.9295359011     0.9057521964
 ----------------------------------------------------------------

    7    -119.0536881822      6.40E-06 Convergence criterion met
    5    -119.0985915387      9.38E-06 Convergence criterion met
 Total energy in the final basis set = -119.09859154

                    Orbital Energies (a.u.)
 --------------------------------------------------------------

 Alpha MOs
 -- Occupied --
-10.2760 -10.2734 -10.2618  -0.8902  -0.7855  -0.6832  -0.5493  -0.5261
 -0.4983  -0.4659  -0.4314  -0.3907  -0.3848

                    Cartesian Multipole Moments
 -----------------------------------------------------------------
    Charge (ESU x 10^10)
                -0.0000
    Dipole Moment (Debye)
         X      -0.0332      Y      -0.0036      Z      -0.0419
       Tot       0.0536
    Quadrupole Moments (Debye-Ang)
        XX     -22.1358     XY      -0.0540     YY     -21.6342
        XZ      -0.3788     YZ       0.0056     ZZ     -22.0402

 Total job time:  44.29s(wall), 123.26s(cpu)
        *  Thank you very much for using Q-Chem.  Have a nice day.  *
