 Q-Chem 5.2 (devel), Q-Chem, Inc., Pleasanton, CA (2019)
 Q-Chem 5.2.2 for Intel X86 EM64T Linux

User input:
--------------------------------------------------------------
$rem
   JOBTYPE  sp
   EXCHANGE   omegaB97X-D
   BASIS   6-311+G(2df,2pd)
   max_scf_cycles   250
   geom_opt_max_cycles   1500
   basis2 6-31G*
   scf_algorithm rca_diis
   SYM_IGNORE  TRUE
   print_input   true
   geom_opt_dmax   80
   pop_mulliken false
   XC_GRID 000075000302
$end

$molecule
0 1
C       1.2537894469     -0.1034464865     0.2242637740
C       0.0000001979     0.1439324067     -0.5604870497
H       1.3702927831     -0.9372892215     0.9118655612
H       1.0739377504     0.8270498385     0.7764260961
H       2.2012404789     0.1086818486     -0.2707644246
C       -1.2537891146     -0.1034465645     0.2242636999
H       0.0000010482     -0.8380902526     -1.0400956892
H       -0.0000013791     0.9041640364     -1.3419544037
H       -1.3702923147     -0.9372891797     0.9118656274
H       -2.2012399853     0.1086838566     -0.2707639577
H       -1.0739389722     0.8270503840     0.7764257854
--------------------------------------------------------------

             Standard Nuclear Orientation (Angstroms)
    I     Atom           X                Y                Z
 ----------------------------------------------------------------
    1      C       1.2537894469    -0.1034464865     0.2242637740
    2      C       0.0000001979     0.1439324067    -0.5604870497
    3      H       1.3702927831    -0.9372892215     0.9118655612
    4      H       1.0739377504     0.8270498385     0.7764260961
    5      H       2.2012404789     0.1086818486    -0.2707644246
    6      C      -1.2537891146    -0.1034465645     0.2242636999
    7      H       0.0000010482    -0.8380902526    -1.0400956892
    8      H      -0.0000013791     0.9041640364    -1.3419544037
    9      H      -1.3702923147    -0.9372891797     0.9118656274
   10      H      -2.2012399853     0.1086838566    -0.2707639577
   11      H      -1.0739389722     0.8270503840     0.7764257854
 ----------------------------------------------------------------

    7    -119.0324603905      7.75E-06 Convergence criterion met
    6    -119.0782919433      4.83E-06 Convergence criterion met
 Total energy in the final basis set = -119.07829194

                    Orbital Energies (a.u.)
 --------------------------------------------------------------

 Alpha MOs
 -- Occupied --
-10.2748 -10.2665 -10.2665  -0.9016  -0.7838  -0.6759  -0.5635  -0.5393
 -0.5022  -0.4479  -0.4459  -0.4244  -0.3371

                    Cartesian Multipole Moments
 -----------------------------------------------------------------
    Charge (ESU x 10^10)
                -0.0000
    Dipole Moment (Debye)
         X      -0.0000      Y      -0.0042      Z      -0.1462
       Tot       0.1463
    Quadrupole Moments (Debye-Ang)
        XX     -21.8454     XY      -0.0000     YY     -21.2066
        XZ      -0.0000     YZ      -1.5892     ZZ     -22.7858

 Total job time:  48.58s(wall), 135.58s(cpu)
        *  Thank you very much for using Q-Chem.  Have a nice day.  *
