 Q-Chem 5.2 (devel), Q-Chem, Inc., Pleasanton, CA (2019)
 Q-Chem 5.2.2 for Intel X86 EM64T Linux

User input:
--------------------------------------------------------------
$rem
   JOBTYPE  sp
   EXCHANGE   omegaB97X-D
   BASIS   6-311+G(2df,2pd)
   max_scf_cycles   250
   geom_opt_max_cycles   1500
   basis2 6-31G*
   scf_algorithm rca_diis
   SYM_IGNORE  TRUE
   print_input   true
   geom_opt_dmax   80
   pop_mulliken false
   XC_GRID 000075000302
$end

$molecule
0 1
C       1.2268887455     -0.1370780606     0.3196106873
C       -0.0172060833     0.0014090205     -0.5733846716
H       1.5498850761     -0.8260305185     1.0956622684
H       1.1400807268     0.8837537387     0.7070153187
H       2.0393437351     0.0348164110     -0.3896370775
C       -1.2917773270     0.1318992954     0.2265286997
H       -0.3014068113     -0.8192697642     -1.2363119131
H       0.4007103606     0.7924092472     -1.2006166261
H       -1.0645323665     -0.8526486532     0.6533636994
H       -2.2214205124     -0.0236738665     -0.3185832187
H       -1.4605656041     0.8144138162     1.0573978524
--------------------------------------------------------------

             Standard Nuclear Orientation (Angstroms)
    I     Atom           X                Y                Z
 ----------------------------------------------------------------
    1      C       1.2268887455    -0.1370780606     0.3196106873
    2      C      -0.0172060833     0.0014090205    -0.5733846716
    3      H       1.5498850761    -0.8260305185     1.0956622684
    4      H       1.1400807268     0.8837537387     0.7070153187
    5      H       2.0393437351     0.0348164110    -0.3896370775
    6      C      -1.2917773270     0.1318992954     0.2265286997
    7      H      -0.3014068113    -0.8192697642    -1.2363119131
    8      H       0.4007103606     0.7924092472    -1.2006166261
    9      H      -1.0645323665    -0.8526486532     0.6533636994
   10      H      -2.2214205124    -0.0236738665    -0.3185832187
   11      H      -1.4605656041     0.8144138162     1.0573978524
 ----------------------------------------------------------------

    7    -119.0492605439      5.59E-06 Convergence criterion met
    6    -119.0941419573      4.41E-06 Convergence criterion met
 Total energy in the final basis set = -119.09414196

                    Orbital Energies (a.u.)
 --------------------------------------------------------------

 Alpha MOs
 -- Occupied --
-10.2845 -10.2678 -10.2658  -0.8948  -0.7863  -0.6766  -0.5623  -0.5323
 -0.4766  -0.4697  -0.4176  -0.4025  -0.3933

                    Cartesian Multipole Moments
 -----------------------------------------------------------------
    Charge (ESU x 10^10)
                 0.0000
    Dipole Moment (Debye)
         X       0.0499      Y      -0.0415      Z      -0.0341
       Tot       0.0733
    Quadrupole Moments (Debye-Ang)
        XX     -21.9011     XY       0.1834     YY     -21.8442
        XZ       0.0947     YZ       0.0406     ZZ     -21.9259

 Total job time:  49.88s(wall), 138.90s(cpu)
        *  Thank you very much for using Q-Chem.  Have a nice day.  *
