 Q-Chem 5.2 (devel), Q-Chem, Inc., Pleasanton, CA (2019)
 Q-Chem 5.2.2 for Intel X86 EM64T Linux

User input:
--------------------------------------------------------------
$rem
   JOBTYPE  sp
   EXCHANGE   omegaB97X-D
   BASIS   6-311+G(2df,2pd)
   max_scf_cycles   250
   geom_opt_max_cycles   1500
   basis2 6-31G*
   scf_algorithm rca_diis
   SYM_IGNORE  TRUE
   print_input   true
   geom_opt_dmax   80
   pop_mulliken false
   XC_GRID 000075000302
$end

$molecule
0 1
C       1.2754587776     -0.0000033305     0.2806352019
C       0.0000010860     0.0000195095     -0.5742468129
H       1.3033421625     -0.7720259871     0.8409723924
H       1.3033443289     0.7720925887     0.8410501541
H       2.0736755944     -0.0000176230     -0.2794936194
C       -1.2754561934     -0.0000030095     0.2806333524
H       0.0000013392     -0.8694997511     -1.2255893814
H       0.0000013931     0.8693894079     -1.2254520176
H       -1.3033411035     -0.7720397420     0.8409812958
H       -2.0736843932     -0.0000166344     -0.2795033897
H       -1.3033430522     0.7721052374     0.8410578433
--------------------------------------------------------------

             Standard Nuclear Orientation (Angstroms)
    I     Atom           X                Y                Z
 ----------------------------------------------------------------
    1      C       1.2754587776    -0.0000033305     0.2806352019
    2      C       0.0000010860     0.0000195095    -0.5742468129
    3      H       1.3033421625    -0.7720259871     0.8409723924
    4      H       1.3033443289     0.7720925887     0.8410501541
    5      H       2.0736755944    -0.0000176230    -0.2794936194
    6      C      -1.2754561934    -0.0000030095     0.2806333524
    7      H       0.0000013392    -0.8694997511    -1.2255893814
    8      H       0.0000013931     0.8693894079    -1.2254520176
    9      H      -1.3033411035    -0.7720397420     0.8409812958
   10      H      -2.0736843932    -0.0000166344    -0.2795033897
   11      H      -1.3033430522     0.7721052374     0.8410578433
 ----------------------------------------------------------------

    7    -119.0148744072      7.56E-06 Convergence criterion met
    6    -119.0655345131      3.99E-06 Convergence criterion met
 Total energy in the final basis set = -119.06553451

                    Orbital Energies (a.u.)
 --------------------------------------------------------------

 Alpha MOs
 -- Occupied --
-10.2671 -10.2179 -10.2179  -0.8913  -0.8118  -0.6970  -0.5574  -0.5377
 -0.5014  -0.4927  -0.4212  -0.4200  -0.4165

                    Cartesian Multipole Moments
 -----------------------------------------------------------------
    Charge (ESU x 10^10)
                -0.0000
    Dipole Moment (Debye)
         X       0.0000      Y       0.0000      Z       0.1007
       Tot       0.1007
    Quadrupole Moments (Debye-Ang)
        XX     -21.1275     XY      -0.0000     YY     -20.7551
        XZ       0.0000     YZ      -0.0001     ZZ     -21.1788

 Total job time:  50.12s(wall), 140.20s(cpu)
        *  Thank you very much for using Q-Chem.  Have a nice day.  *
