 Q-Chem 5.2 (devel), Q-Chem, Inc., Pleasanton, CA (2019)
 Q-Chem 5.2.2 for Intel X86 EM64T Linux

User input:
--------------------------------------------------------------
$rem
   JOBTYPE  sp
   EXCHANGE   omegaB97X-D
   BASIS   6-311+G(2df,2pd)
   max_scf_cycles   250
   geom_opt_max_cycles   1500
   basis2 6-31G*
   scf_algorithm rca_diis
   SYM_IGNORE  TRUE
   print_input   true
   geom_opt_dmax   80
   pop_mulliken false
   XC_GRID 000075000302
$end

$molecule
0 1
C       1.2673476562     0.0214241587     0.2589086648
C       -0.0000004771     0.0201947611     -0.5876597012
H       1.3067594949     -0.9007314956     0.9298928114
H       1.3039151719     0.8623707427     0.8777551857
H       2.1627485199     0.0168384308     -0.3590965041
C       -1.2673508827     0.0214247350     0.2589053634
H       -0.0000000269     -0.8835644906     -1.2628406460
H       -0.0000000015     0.8635667479     -1.2233799547
H       -1.3067633213     -0.9007378446     0.9298954472
H       -2.1627376252     0.0168396633     -0.3590913981
H       -1.3039185688     0.8623752573     0.8777557504
--------------------------------------------------------------

             Standard Nuclear Orientation (Angstroms)
    I     Atom           X                Y                Z
 ----------------------------------------------------------------
    1      C       1.2673476562     0.0214241587     0.2589086648
    2      C      -0.0000004771     0.0201947611    -0.5876597012
    3      H       1.3067594949    -0.9007314956     0.9298928114
    4      H       1.3039151719     0.8623707427     0.8777551857
    5      H       2.1627485199     0.0168384308    -0.3590965041
    6      C      -1.2673508827     0.0214247350     0.2589053634
    7      H      -0.0000000269    -0.8835644906    -1.2628406460
    8      H      -0.0000000015     0.8635667479    -1.2233799547
    9      H      -1.3067633213    -0.9007378446     0.9298954472
   10      H      -2.1627376252     0.0168396633    -0.3590913981
   11      H      -1.3039185688     0.8623752573     0.8777557504
 ----------------------------------------------------------------

    7    -119.0957519608      4.57E-06 Convergence criterion met
    6    -119.1389710257      3.86E-06 Convergence criterion met
 Total energy in the final basis set = -119.13897103

                    Orbital Energies (a.u.)
 --------------------------------------------------------------

 Alpha MOs
 -- Occupied --
-10.2739 -10.2649 -10.2649  -0.8818  -0.7781  -0.6788  -0.5460  -0.5248
 -0.4862  -0.4600  -0.4190  -0.4177  -0.4071

                    Cartesian Multipole Moments
 -----------------------------------------------------------------
    Charge (ESU x 10^10)
                -0.0000
    Dipole Moment (Debye)
         X      -0.0000      Y       0.1527      Z      -0.0944
       Tot       0.1796
    Quadrupole Moments (Debye-Ang)
        XX     -22.1556     XY      -0.0000     YY     -21.3554
        XZ       0.0000     YZ      -0.0026     ZZ     -21.8522

 Total job time:  48.45s(wall), 135.25s(cpu)
        *  Thank you very much for using Q-Chem.  Have a nice day.  *
