 Q-Chem 5.2 (devel), Q-Chem, Inc., Pleasanton, CA (2019)
 Q-Chem 5.2.2 for Intel X86 EM64T Linux

User input:
--------------------------------------------------------------
$rem
   JOBTYPE  sp
   EXCHANGE   omegaB97X-D
   BASIS   6-311+G(2df,2pd)
   max_scf_cycles   250
   geom_opt_max_cycles   1500
   basis2 6-31G*
   scf_algorithm rca_diis
   SYM_IGNORE  TRUE
   print_input   true
   geom_opt_dmax   80
   pop_mulliken false
   XC_GRID 000075000302
$end

$molecule
0 1
C       1.2917770707     0.1318997145     0.2265290123
C       0.0172061595     0.0014089904     -0.5733846539
H       1.0645324488     -0.8526488694     0.6533628666
H       1.4605662319     0.8144139304     1.0573981339
H       2.2214198582     -0.0236751225     -0.3185831325
C       -1.2268884867     -0.1370774702     0.3196109084
H       0.3014069900     -0.8192697505     -1.2363117984
H       -0.4007104482     0.7924092128     -1.2006166830
H       -1.5498849350     -0.8260305059     1.0956619628
H       -2.0393433947     0.0348161789     -0.3896371690
H       -1.1400815552     0.8837543575     0.7070155716
--------------------------------------------------------------

             Standard Nuclear Orientation (Angstroms)
    I     Atom           X                Y                Z
 ----------------------------------------------------------------
    1      C       1.2917770707     0.1318997145     0.2265290123
    2      C       0.0172061595     0.0014089904    -0.5733846539
    3      H       1.0645324488    -0.8526488694     0.6533628666
    4      H       1.4605662319     0.8144139304     1.0573981339
    5      H       2.2214198582    -0.0236751225    -0.3185831325
    6      C      -1.2268884867    -0.1370774702     0.3196109084
    7      H       0.3014069900    -0.8192697505    -1.2363117984
    8      H      -0.4007104482     0.7924092128    -1.2006166830
    9      H      -1.5498849350    -0.8260305059     1.0956619628
   10      H      -2.0393433947     0.0348161789    -0.3896371690
   11      H      -1.1400815552     0.8837543575     0.7070155716
 ----------------------------------------------------------------

    7    -119.0492605125      5.59E-06 Convergence criterion met
    6    -119.0941419282      4.41E-06 Convergence criterion met
 Total energy in the final basis set = -119.09414193

                    Orbital Energies (a.u.)
 --------------------------------------------------------------

 Alpha MOs
 -- Occupied --
-10.2845 -10.2678 -10.2658  -0.8948  -0.7863  -0.6766  -0.5623  -0.5323
 -0.4766  -0.4697  -0.4176  -0.4025  -0.3933

                    Cartesian Multipole Moments
 -----------------------------------------------------------------
    Charge (ESU x 10^10)
                 0.0000
    Dipole Moment (Debye)
         X      -0.0499      Y      -0.0415      Z      -0.0341
       Tot       0.0733
    Quadrupole Moments (Debye-Ang)
        XX     -21.9011     XY      -0.1834     YY     -21.8442
        XZ      -0.0947     YZ       0.0406     ZZ     -21.9259

 Total job time:  48.88s(wall), 136.58s(cpu)
        *  Thank you very much for using Q-Chem.  Have a nice day.  *
