 Q-Chem 5.2 (devel), Q-Chem, Inc., Pleasanton, CA (2019)
 Q-Chem 5.2.2 for Intel X86 EM64T Linux

User input:
--------------------------------------------------------------
$rem
   JOBTYPE  sp
   EXCHANGE   omegaB97X-D
   BASIS   6-311+G(2df,2pd)
   max_scf_cycles   250
   geom_opt_max_cycles   1500
   basis2 6-31G*
   scf_algorithm rca_diis
   SYM_IGNORE  TRUE
   print_input   true
   geom_opt_dmax   80
   pop_mulliken false
   XC_GRID 000075000302
$end

$molecule
0 1
C       1.1871643891     -0.0035484615     0.2619705814
C       0.0000000415     -0.0022769536     -0.4892775708
H       1.3055886808     -0.8863112286     0.8917611076
H       1.2972405338     0.8863523737     0.8838897213
H       1.9896355464     0.0034962800     -0.4750505602
C       -1.1871641047     -0.0035482203     0.2619709837
H       -0.0000006424     -0.8711476198     -1.1520012638
H       -0.0000001426     0.8734465672     -1.1428180132
H       -1.3055886855     -0.8863113598     0.8917608935
H       -1.9896345953     0.0034967131     -0.4750509165
H       -1.2972410815     0.8863525756     0.8838900559
--------------------------------------------------------------

             Standard Nuclear Orientation (Angstroms)
    I     Atom           X                Y                Z
 ----------------------------------------------------------------
    1      C       1.1871643891    -0.0035484615     0.2619705814
    2      C       0.0000000415    -0.0022769536    -0.4892775708
    3      H       1.3055886808    -0.8863112286     0.8917611076
    4      H       1.2972405338     0.8863523737     0.8838897213
    5      H       1.9896355464     0.0034962800    -0.4750505602
    6      C      -1.1871641047    -0.0035482203     0.2619709837
    7      H      -0.0000006424    -0.8711476198    -1.1520012638
    8      H      -0.0000001426     0.8734465672    -1.1428180132
    9      H      -1.3055886855    -0.8863113598     0.8917608935
   10      H      -1.9896345953     0.0034967131    -0.4750509165
   11      H      -1.2972410815     0.8863525756     0.8838900559
 ----------------------------------------------------------------

    7    -119.0788406966      4.85E-06 Convergence criterion met
    6    -119.1239147472      3.14E-06 Convergence criterion met
 Total energy in the final basis set = -119.12391475

                    Orbital Energies (a.u.)
 --------------------------------------------------------------

 Alpha MOs
 -- Occupied --
-10.2541 -10.2536 -10.2533  -0.9174  -0.7888  -0.6673  -0.5666  -0.5396
 -0.5050  -0.4656  -0.4176  -0.4109  -0.3944

                    Cartesian Multipole Moments
 -----------------------------------------------------------------
    Charge (ESU x 10^10)
                -0.0000
    Dipole Moment (Debye)
         X      -0.0000      Y       0.0053      Z      -0.1658
       Tot       0.1659
    Quadrupole Moments (Debye-Ang)
        XX     -22.7943     XY      -0.0000     YY     -21.1215
        XZ       0.0000     YZ      -0.0266     ZZ     -21.6899

 Total job time:  49.94s(wall), 139.04s(cpu)
        *  Thank you very much for using Q-Chem.  Have a nice day.  *
