 Q-Chem 5.2 (devel), Q-Chem, Inc., Pleasanton, CA (2019)
 Q-Chem 5.2.2 for Intel X86 EM64T Linux

User input:
--------------------------------------------------------------
$rem
   JOBTYPE  sp
   EXCHANGE   omegaB97X-D
   BASIS   6-311+G(2df,2pd)
   max_scf_cycles   250
   geom_opt_max_cycles   1500
   basis2 6-31G*
   scf_algorithm rca_diis
   SYM_IGNORE  TRUE
   print_input   true
   geom_opt_dmax   80
   pop_mulliken false
   XC_GRID 000075000302
$end

$molecule
0 1
C       1.2785958905     -0.0061003297     0.2487974689
C       0.0076680317     -0.0002992827     -0.5869561466
H       1.2824174762     -0.8433447375     0.9495908491
H       1.3288409772     0.8426818452     0.9369758414
H       2.1544540263     0.0272422718     -0.3970474478
C       -1.2557031097     0.0051636869     0.2706839974
H       -0.0145385304     -0.8738883094     -1.2427805778
H       0.0051221242     0.8737160996     -1.2425835406
H       -1.3304777288     -0.9137023417     0.8557829646
H       -2.1733246375     -0.0269303509     -0.3207859513
H       -1.2830545803     0.9154621144     0.8693675614
--------------------------------------------------------------

             Standard Nuclear Orientation (Angstroms)
    I     Atom           X                Y                Z
 ----------------------------------------------------------------
    1      C       1.2785958905    -0.0061003297     0.2487974689
    2      C       0.0076680317    -0.0002992827    -0.5869561466
    3      H       1.2824174762    -0.8433447375     0.9495908491
    4      H       1.3288409772     0.8426818452     0.9369758414
    5      H       2.1544540263     0.0272422718    -0.3970474478
    6      C      -1.2557031097     0.0051636869     0.2706839974
    7      H      -0.0145385304    -0.8738883094    -1.2427805778
    8      H       0.0051221242     0.8737160996    -1.2425835406
    9      H      -1.3304777288    -0.9137023417     0.8557829646
   10      H      -2.1733246375    -0.0269303509    -0.3207859513
   11      H      -1.2830545803     0.9154621144     0.8693675614
 ----------------------------------------------------------------

    7    -119.0996311405      4.72E-06 Convergence criterion met
    6    -119.1427332852      3.88E-06 Convergence criterion met
 Total energy in the final basis set = -119.14273329

                    Orbital Energies (a.u.)
 --------------------------------------------------------------

 Alpha MOs
 -- Occupied --
-10.2740 -10.2653 -10.2651  -0.8813  -0.7775  -0.6781  -0.5465  -0.5259
 -0.4830  -0.4629  -0.4208  -0.4151  -0.4048

                    Cartesian Multipole Moments
 -----------------------------------------------------------------
    Charge (ESU x 10^10)
                -0.0000
    Dipole Moment (Debye)
         X      -0.0395      Y       0.0019      Z      -0.0849
       Tot       0.0937
    Quadrupole Moments (Debye-Ang)
        XX     -22.1627     XY       0.2431     YY     -21.3806
        XZ      -0.0058     YZ       0.0035     ZZ     -21.8440

 Total job time:  48.84s(wall), 136.01s(cpu)
        *  Thank you very much for using Q-Chem.  Have a nice day.  *
