 Q-Chem 5.2 (devel), Q-Chem, Inc., Pleasanton, CA (2019)
 Q-Chem 5.2.2 for Intel X86 EM64T Linux

User input:
--------------------------------------------------------------
$rem
   JOBTYPE  sp
   EXCHANGE   omegaB97X-D
   BASIS   6-311+G(2df,2pd)
   max_scf_cycles   250
   geom_opt_max_cycles   1500
   basis2 6-31G*
   scf_algorithm rca_diis
   SYM_IGNORE  TRUE
   print_input   true
   geom_opt_dmax   80
   pop_mulliken false
   XC_GRID 000075000302
$end

$molecule
0 1
C       1.1817248682     0.0337146279     0.3744640366
C       -0.0549000588     -0.0008115483     -0.5903494695
H       1.3454922420     -0.8941381985     0.9260154302
H       1.4530773451     0.8696674384     1.0186068027
H       1.8865207861     -0.0018368804     -0.4606191614
C       -1.3441049001     -0.0292921916     0.1344234618
H       0.2154293905     -0.8550576097     -1.2156032835
H       0.0597506583     0.8723059581     -1.2370934082
H       -1.2316431955     -0.8404346483     0.8567883276
H       -2.3733011469     -0.0049538968     -0.2163737492
H       -1.1380460495     0.8508376152     0.7507860319
--------------------------------------------------------------

             Standard Nuclear Orientation (Angstroms)
    I     Atom           X                Y                Z
 ----------------------------------------------------------------
    1      C       1.1817248682     0.0337146279     0.3744640366
    2      C      -0.0549000588    -0.0008115483    -0.5903494695
    3      H       1.3454922420    -0.8941381985     0.9260154302
    4      H       1.4530773451     0.8696674384     1.0186068027
    5      H       1.8865207861    -0.0018368804    -0.4606191614
    6      C      -1.3441049001    -0.0292921916     0.1344234618
    7      H       0.2154293905    -0.8550576097    -1.2156032835
    8      H       0.0597506583     0.8723059581    -1.2370934082
    9      H      -1.2316431955    -0.8404346483     0.8567883276
   10      H      -2.3733011469    -0.0049538968    -0.2163737492
   11      H      -1.1380460495     0.8508376152     0.7507860319
 ----------------------------------------------------------------

    7    -119.0683064925      4.99E-06 Convergence criterion met
    6    -119.1124785733      4.39E-06 Convergence criterion met
 Total energy in the final basis set = -119.11247857

                    Orbital Energies (a.u.)
 --------------------------------------------------------------

 Alpha MOs
 -- Occupied --
-10.2812 -10.2685 -10.2623  -0.8898  -0.7816  -0.6790  -0.5492  -0.5350
 -0.4874  -0.4617  -0.4163  -0.4045  -0.4008

                    Cartesian Multipole Moments
 -----------------------------------------------------------------
    Charge (ESU x 10^10)
                -0.0000
    Dipole Moment (Debye)
         X       0.1067      Y       0.0244      Z      -0.0737
       Tot       0.1320
    Quadrupole Moments (Debye-Ang)
        XX     -22.0316     XY       0.0114     YY     -21.5651
        XZ       0.0954     YZ      -0.0412     ZZ     -21.9754

 Total job time:  49.70s(wall), 138.67s(cpu)
        *  Thank you very much for using Q-Chem.  Have a nice day.  *
