 Q-Chem 5.3 (devel), Q-Chem, Inc., Pleasanton, CA (2020)
 Q-Chem 5.3.0 for Intel X86 EM64T Linux

User input:
--------------------------------------------------------------
$molecule
0 1
C       -3.5752319092      1.1159830599      0.2957309391
C       -2.4787547515      1.8526835950      0.2482623575
H       -3.6968868211      0.2381399706     -0.3262400384
H       -4.3954437066      1.3615170545      0.9586158310
H       -1.6585429195      1.6071496602     -0.4146224793
H       -2.3570998922      2.7305266598      0.8702333901
$end

$rem
   JOBTYPE         freq
   EXCHANGE omegaB97X-D
   BASIS 6-311+G(2df,2pd)
   SYM_IGNORE=TRUE
   XC_GRID 000075000302
   SCF_ALGORITHM DIIS
   MAX_SCF_CYCLES 150
   SCF_CONVERGENCE 8
   WAVEFUNCTION_ANALYSIS FALSE
   SYMMETRY FALSE
$end

--------------------------------------------------------------

             Standard Nuclear Orientation (Angstroms)
    I     Atom           X                Y                Z
 ----------------------------------------------------------------
    1      C      -3.5752319092     1.1159830599     0.2957309391
    2      C      -2.4787547515     1.8526835950     0.2482623575
    3      H      -3.6968868211     0.2381399706    -0.3262400384
    4      H      -4.3954437066     1.3615170545     0.9586158310
    5      H      -1.6585429195     1.6071496602    -0.4146224793
    6      H      -2.3570998922     2.7305266598     0.8702333901
 ----------------------------------------------------------------

    9     -78.5865592604      7.69e-09  Convergence criterion met
 Total energy in the final basis set =      -78.5865592604
 Frequency:       839.33                 984.57                 999.40
 Force Cnst:      0.4327                 0.6629                 0.8937
 Red. Mass:       1.0425                 1.1607                 1.5187
 IR Intens:        0.228                107.043                  0.000
 Frequency:      1068.04                1247.82                1388.77
 Force Cnst:      0.6774                 1.3997                 1.3612
 Red. Mass:       1.0078                 1.5258                 1.1979
 IR Intens:        0.004                  0.000                  0.000
 Frequency:      1477.14                1710.25                3151.74
 Force Cnst:      1.4297                 5.6955                 6.1314
 Red. Mass:       1.1121                 3.3049                 1.0476
 IR Intens:       12.029                  0.000                 15.566
 Frequency:      3169.89                3231.47                3257.38
 Force Cnst:      6.3641                 6.8602                 6.9888
 Red. Mass:       1.0750                 1.1150                 1.1179
 IR Intens:        0.000                  0.000                 18.847

 STANDARD THERMODYNAMIC QUANTITIES AT   298.15 K  AND     1.00 ATM

   This Molecule has  0 Imaginary Frequencies
   Zero point vibrational energy:       32.202 kcal/mol

   Atom    1 Element C  Has Mass   12.00000
   Atom    2 Element C  Has Mass   12.00000
   Atom    3 Element H  Has Mass    1.00783
   Atom    4 Element H  Has Mass    1.00783
   Atom    5 Element H  Has Mass    1.00783
   Atom    6 Element H  Has Mass    1.00783
   Molecular Mass:    28.031320 amu
   Principal axes and moments of inertia in amu*Bohr^2:
                             1           2           3
    Eigenvalues --       12.23961    59.16387    71.40349
          X               0.82953    -0.37902     0.41016
          Y               0.55731     0.60902    -0.56436
          Z              -0.03590     0.69674     0.71643
   Rotational Symmetry Number is   1
   The Molecule is an Asymmetric Top
   Translational Enthalpy:        0.889 kcal/mol
   Rotational Enthalpy:           0.889 kcal/mol
   Vibrational Enthalpy:         32.328 kcal/mol
   gas constant (RT):             0.592 kcal/mol
   Translational Entropy:        35.927  cal/mol.K
   Rotational Entropy:           18.587  cal/mol.K
   Vibrational Entropy:           0.512  cal/mol.K

   Total Enthalpy:               34.698 kcal/mol
   Total Entropy:                55.026  cal/mol.K

 Total job time:  32.84s(wall), 272.31s(cpu)
        *  Thank you very much for using Q-Chem.  Have a nice day.  *
