 Q-Chem 5.3 (devel), Q-Chem, Inc., Pleasanton, CA (2020)
 Q-Chem 5.3.0 for Intel X86 EM64T Linux

User input:
--------------------------------------------------------------
$molecule
0 1
Cl      -1.0879484551      3.7088037094     -0.6562532177
C       -2.7350192672      3.5367786437      0.0451463316
C       -3.2012176409      2.0995611597      0.0224836863
H       -2.5368552575      1.4627910576      0.6047689898
H       -3.3818237376      4.1817957340     -0.5433362646
H       -2.6743241926      3.9274159657      1.0572841278
H       -3.2405335723      1.7168662533     -0.9963188981
H       -4.2024778767      2.0367374766      0.4525752450
$end

$rem
   JOBTYPE         freq
   EXCHANGE omegaB97X-D
   BASIS 6-311+G(2df,2pd)
   max_scf_cycles = 250
   scf_algorithm = rca_diis
   sym_ignore = True
   symmetry = False
   print_input = True
   XC_GRID = 000075000302
   mem_total = 20000
   mem_static = 450
   pop_mulliken = False
$end

--------------------------------------------------------------

             Standard Nuclear Orientation (Angstroms)
    I     Atom           X                Y                Z
 ----------------------------------------------------------------
    1      Cl     -1.0879484551     3.7088037094    -0.6562532177
    2      C      -2.7350192672     3.5367786437     0.0451463316
    3      C      -3.2012176409     2.0995611597     0.0224836863
    4      H      -2.5368552575     1.4627910576     0.6047689898
    5      H      -3.3818237376     4.1817957340    -0.5433362646
    6      H      -2.6743241926     3.9274159657     1.0572841278
    7      H      -3.2405335723     1.7168662533    -0.9963188981
    8      H      -4.2024778767     2.0367374766     0.4525752450
 ----------------------------------------------------------------

   12    -539.4428296664      3.61E-09 Convergence criterion met
 Total energy in the final basis set = -539.44282967

                    Orbital Energies (a.u.)
 --------------------------------------------------------------

 Alpha MOs
 -- Occupied --
******** -10.3451 -10.2885  -9.5735  -7.3219  -7.3133  -7.3133  -0.9572
 -0.8442  -0.7178  -0.5688  -0.5420  -0.4980  -0.4633  -0.4542  -0.3797
 -0.3781

                    Cartesian Multipole Moments
 -----------------------------------------------------------------
    Charge (ESU x 10^10)
                 0.0000
    Dipole Moment (Debye)
         X      -1.9964      Y      -0.4051      Z       0.8183
       Tot       2.1953
    Quadrupole Moments (Debye-Ang)
        XX     -17.9436     XY      -6.1912     YY     -29.1998
        XZ      -1.2270     YZ       2.9742     ZZ     -26.6847

 Frequency:       263.75                 337.80                 693.70
 Force Cnst:      0.0448                 0.2148                 1.2736
 Red. Mass:       1.0927                 3.1942                 4.4921
 IR Intens:        0.069                  2.405                 25.675
 Frequency:       798.74                 996.03                1086.38
 Force Cnst:      0.4169                 1.0983                 0.8745
 Red. Mass:       1.1090                 1.8791                 1.2577
 IR Intens:        2.966                 21.048                  0.020
 Frequency:      1096.54                1283.18                1327.23
 Force Cnst:      1.4691                 1.1676                 1.2848
 Red. Mass:       2.0738                 1.2036                 1.2379
 IR Intens:        0.713                  0.640                 32.933
 Frequency:      1421.95                1492.17                1500.50
 Force Cnst:      1.4856                 1.3595                 1.4375
 Red. Mass:       1.2470                 1.0363                 1.0836
 IR Intens:        7.173                  9.066                  1.590
 Frequency:      1506.71                3058.63                3107.33
 Force Cnst:      1.4140                 5.7124                 6.0323
 Red. Mass:       1.0572                 1.0364                 1.0604
 IR Intens:        3.790                 15.425                 11.435
 Frequency:      3135.01                3143.61                3172.52
 Force Cnst:      6.3584                 6.4309                 6.5798
 Red. Mass:       1.0981                 1.1045                 1.1096
 IR Intens:       21.404                  4.636                 13.854

 STANDARD THERMODYNAMIC QUANTITIES AT   298.15 K  AND     1.00 ATM

   This Molecule has  0 Imaginary Frequencies
   Zero point vibrational energy:       42.061 kcal/mol

   Atom    1 Element Cl Has Mass   34.96885
   Atom    2 Element C  Has Mass   12.00000
   Atom    3 Element C  Has Mass   12.00000
   Atom    4 Element H  Has Mass    1.00783
   Atom    5 Element H  Has Mass    1.00783
   Atom    6 Element H  Has Mass    1.00783
   Atom    7 Element H  Has Mass    1.00783
   Atom    8 Element H  Has Mass    1.00783
   Molecular Mass:    64.008000 amu
   Principal axes and moments of inertia in amu*Bohr^2:
                             1           2           3
    Eigenvalues --       56.68827   330.40721   364.59995
          X               0.81335    -0.42206     0.40040
          Y               0.51077     0.84755    -0.14415
          Z              -0.27852     0.32176     0.90493
   Rotational Symmetry Number is   1
   The Molecule is an Asymmetric Top
   Translational Enthalpy:        0.889 kcal/mol
   Rotational Enthalpy:           0.889 kcal/mol
   Vibrational Enthalpy:         42.794 kcal/mol
   gas constant (RT):             0.592 kcal/mol
   Translational Entropy:        38.388  cal/mol.K
   Rotational Entropy:           23.439  cal/mol.K
   Vibrational Entropy:           3.711  cal/mol.K

   Total Enthalpy:               45.164 kcal/mol
   Total Entropy:                65.538  cal/mol.K

 Total job time:  146.81s(wall), 1198.15s(cpu)
        *  Thank you very much for using Q-Chem.  Have a nice day.  *
