 Q-Chem 5.3 (devel), Q-Chem, Inc., Pleasanton, CA (2020)
 Q-Chem 5.3.0 for Intel X86 EM64T Linux

User input:
--------------------------------------------------------------
$molecule
0 1
Cl      -6.3214699591      1.1344300000      0.0000000000
H       -5.0438300409      1.1344300000      0.0000000000
$end

$rem
   JOBTYPE         freq
   EXCHANGE omegaB97X-D
   BASIS 6-311+G(2df,2pd)
   SYM_IGNORE=TRUE
   XC_GRID 000075000302
   SCF_ALGORITHM DIIS
   MAX_SCF_CYCLES 150
   SCF_CONVERGENCE 8
   WAVEFUNCTION_ANALYSIS FALSE
   SYMMETRY FALSE
$end

--------------------------------------------------------------

             Standard Nuclear Orientation (Angstroms)
    I     Atom           X                Y                Z
 ----------------------------------------------------------------
    1      Cl     -6.3214699591     1.1344300000     0.0000000000
    2      H      -5.0438300409     1.1344300000     0.0000000000
 ----------------------------------------------------------------

   10    -460.8190354318      2.96e-09  Convergence criterion met
 Total energy in the final basis set =     -460.8190354318
 Frequency:      2975.81
 Force Cnst:      5.4054
 Red. Mass:       1.0360
 IR Intens:       51.440

 STANDARD THERMODYNAMIC QUANTITIES AT   298.15 K  AND     1.00 ATM

   This Molecule has  0 Imaginary Frequencies
   Zero point vibrational energy:        4.254 kcal/mol

 Q-Chem warning in module 0, line  389:

  SYM_IGNORE is turned on for a linear molecule

    We detect a C*h symmetry
   Atom    1 Element Cl Has Mass   34.96885
   Atom    2 Element H  Has Mass    1.00783
   Molecular Mass:    35.976680 amu
   Principal axes and moments of inertia in amu*Bohr^2:
                             1           2           3
    Eigenvalues --        0.00000     5.71034     5.71034
          X               1.00000     0.00000     0.00000
          Y               0.00000     1.00000     0.00000
          Z               0.00000     0.00000     1.00000
   Rotational Symmetry Number is   1
   The Molecule is a Symmetric Top
   Translational Enthalpy:        0.889 kcal/mol
   Rotational Enthalpy:           0.889 kcal/mol
   Vibrational Enthalpy:          4.254 kcal/mol
   gas constant (RT):             0.592 kcal/mol
   Translational Entropy:        36.671  cal/mol.K
   Rotational Entropy:            7.906  cal/mol.K
   Vibrational Entropy:           0.000  cal/mol.K

   Total Enthalpy:                6.624 kcal/mol
   Total Entropy:                44.576  cal/mol.K

 Total job time:  4.72s(wall), 44.21s(cpu)
        *  Thank you very much for using Q-Chem.  Have a nice day.  *
