 Q-Chem 5.3 (devel), Q-Chem, Inc., Pleasanton, CA (2020)
 Q-Chem 5.3.0 for Intel X86 EM64T Linux

User input:
--------------------------------------------------------------
$molecule
0 1
Cl      -1.2138365174      3.4272099474     -1.4297090874
C       -3.0339878077      3.5005901731      0.3588571919
C       -3.2992802556      2.1421802703      0.2761530092
H       -2.8936249143      1.4781724753      1.0274012683
H       -3.5692518421      4.2203281334     -0.2430137005
H       -2.3080406691      3.8955266072      1.0544678030
H       -2.3777450189      2.3102016575     -0.5773567503
H       -4.1641429750      1.8071707359     -0.2802997342
$end

$rem
   JOBTYPE         freq
   EXCHANGE omegaB97X-D
   BASIS 6-311+G(2df,2pd)
   XC_GRID 000075000302
   SYM_IGNORE=TRUE
   geom_opt_max_cycles   150
   max_scf_cycles   250
   geom_opt_dmax  80
   SCF_ALGORITHM RCA_DIIS
   MAX_SCF_CYCLES 150
   SYMMETRY FALSE
   MEM_TOTAL 20000
   POP_MULLIKEN FALSE
   MEM_STATIC 450
$end

--------------------------------------------------------------

             Standard Nuclear Orientation (Angstroms)
    I     Atom           X                Y                Z
 ----------------------------------------------------------------
    1      Cl     -1.2138365174     3.4272099474    -1.4297090874
    2      C      -3.0339878077     3.5005901731     0.3588571919
    3      C      -3.2992802556     2.1421802703     0.2761530092
    4      H      -2.8936249143     1.4781724753     1.0274012683
    5      H      -3.5692518421     4.2203281334    -0.2430137005
    6      H      -2.3080406691     3.8955266072     1.0544678030
    7      H      -2.3777450189     2.3102016575    -0.5773567503
    8      H      -4.1641429750     1.8071707359    -0.2802997342
 ----------------------------------------------------------------

   14    -539.3452590790      5.42E-09 Convergence criterion met
 Total energy in the final basis set = -539.34525908

                    Orbital Energies (a.u.)
 --------------------------------------------------------------

 Alpha MOs
 -- Occupied --
******** -10.4056 -10.3283  -9.5059  -7.2501  -7.2483  -7.2472  -0.9582
 -0.8258  -0.7487  -0.6250  -0.5868  -0.5265  -0.5058  -0.3544  -0.3432
 -0.3294

                    Cartesian Multipole Moments
 -----------------------------------------------------------------
    Charge (ESU x 10^10)
                -0.0000
    Dipole Moment (Debye)
         X      -4.2002      Y      -0.7726      Z       3.8913
       Tot       5.7776
    Quadrupole Moments (Debye-Ang)
        XX      -9.6826     XY     -12.1937     YY     -29.9786
        XZ      -4.4339     YZ      13.5611     ZZ     -31.8689

 Frequency:     -1517.41                 273.19                 338.18
 Force Cnst:      1.5341                 0.2136                 0.3092
 Red. Mass:       1.1308                 4.8579                 4.5894
 IR Intens:      205.312                 82.212                121.068
 Frequency:       386.71                 801.88                 845.57
 Force Cnst:      0.0921                 0.3929                 0.4299
 Red. Mass:       1.0457                 1.0371                 1.0205
 IR Intens:        3.582                  6.624                  0.110
 Frequency:       977.21                1093.30                1225.39
 Force Cnst:      0.6278                 0.8708                 1.0565
 Red. Mass:       1.1159                 1.2365                 1.1942
 IR Intens:       37.035                 20.068                  5.490
 Frequency:      1250.24                1314.35                1444.85
 Force Cnst:      1.1408                 1.7516                 1.3368
 Red. Mass:       1.2387                 1.7209                 1.0869
 IR Intens:        1.632                 55.686                236.007
 Frequency:      1480.29                1611.80                3158.53
 Force Cnst:      1.4234                 2.6116                 6.1948
 Red. Mass:       1.1025                 1.7062                 1.0539
 IR Intens:       59.232                217.006                  2.812
 Frequency:      3195.55                3256.71                3301.09
 Force Cnst:      6.3694                 6.9896                 7.1894
 Red. Mass:       1.0587                 1.1185                 1.1198
 IR Intens:        4.359                  0.074                  4.106

 STANDARD THERMODYNAMIC QUANTITIES AT   298.15 K  AND     1.00 ATM

   This Molecule has  1 Imaginary Frequencies
   Zero point vibrational energy:       37.104 kcal/mol

   Atom    1 Element Cl Has Mass   34.96885
   Atom    2 Element C  Has Mass   12.00000
   Atom    3 Element C  Has Mass   12.00000
   Atom    4 Element H  Has Mass    1.00783
   Atom    5 Element H  Has Mass    1.00783
   Atom    6 Element H  Has Mass    1.00783
   Atom    7 Element H  Has Mass    1.00783
   Atom    8 Element H  Has Mass    1.00783
   Molecular Mass:    64.008000 amu
   Principal axes and moments of inertia in amu*Bohr^2:
                             1           2           3
    Eigenvalues --       69.22501   427.47392   472.18184
          X               0.72239    -0.08545     0.68619
          Y               0.27972     0.94363    -0.17697
          Z              -0.63239     0.31978     0.70557
   Rotational Symmetry Number is   1
   The Molecule is an Asymmetric Top
   Translational Enthalpy:        0.889 kcal/mol
   Rotational Enthalpy:           0.889 kcal/mol
   Vibrational Enthalpy:         37.993 kcal/mol
   gas constant (RT):             0.592 kcal/mol
   Translational Entropy:        38.388  cal/mol.K
   Rotational Entropy:           24.150  cal/mol.K
   Vibrational Entropy:           4.487  cal/mol.K

   Total Enthalpy:               40.363 kcal/mol
   Total Entropy:                67.025  cal/mol.K

 Total job time:  115.19s(wall), 945.01s(cpu)
        *  Thank you very much for using Q-Chem.  Have a nice day.  *
